# vtk DataFile Version 2.0
grid description
ASCII
DATASET UNSTRUCTURED_GRID

POINTS 226 double
10.000000 127.000000 0
10.000000 10.000000 0
127.000000 10.000000 0
409.000000 390.000000 0
394.000000 252.000000 0
420.000000 389.000000 0
232.000000 361.000000 0
219.000000 386.000000 0
183.000000 340.000000 0
305.000000 500.000000 0
317.000000 499.000000 0
323.000000 500.000000 0
170.000000 407.000000 0
157.000000 392.000000 0
159.000000 380.000000 0
548.000000 132.000000 0
547.000000 127.000000 0
547.000000 126.000000 0
471.000000 182.000000 0
437.000000 394.000000 0
453.000000 190.000000 0
651.000000 127.000000 0
446.000000 407.000000 0
444.000000 403.000000 0
442.000000 398.000000 0
193.000000 211.000000 0
371.000000 192.000000 0
361.000000 207.000000 0
185.000000 202.000000 0
402.000000 463.000000 0
410.000000 462.000000 0
361.000000 599.000000 0
316.000000 360.000000 0
308.000000 349.000000 0
340.000000 354.000000 0
291.000000 500.000000 0
244.000000 599.000000 0
10.000000 244.000000 0
157.000000 220.000000 0
177.000000 347.000000 0
127.000000 599.000000 0
10.000000 599.000000 0
10.000000 478.000000 0
478.000000 599.000000 0
651.000000 478.000000 0
651.000000 599.000000 0
435.000000 445.000000 0
428.000000 452.000000 0
400.000000 393.000000 0
219.000000 245.000000 0
182.000000 248.000000 0
544.000000 122.000000 0
532.000000 118.000000 0
651.000000 10.000000 0
158.000000 381.000000 0
161.000000 372.000000 0
421.000000 457.000000 0
439.000000 195.000000 0
406.000000 147.000000 0
416.000000 139.000000 0
543.000000 143.000000 0
547.000000 137.000000 0
186.000000 336.000000 0
201.000000 277.000000 0
190.000000 334.000000 0
442.000000 433.000000 0
445.000000 421.000000 0
446.000000 412.000000 0
139.000000 199.000000 0
160.000000 174.000000 0
163.000000 177.000000 0
152.000000 168.000000 0
143.000000 164.000000 0
383.000000 458.000000 0
374.000000 451.000000 0
392.000000 396.000000 0
280.000000 499.000000 0
275.000000 482.000000 0
283.000000 448.000000 0
280.000000 438.000000 0
331.000000 434.000000 0
418.000000 213.000000 0
379.000000 180.000000 0
437.000000 128.000000 0
478.000000 10.000000 0
449.000000 124.000000 0
361.000000 10.000000 0
397.000000 156.000000 0
392.000000 162.000000 0
459.000000 186.000000 0
426.000000 133.000000 0
277.000000 477.000000 0
196.000000 403.000000 0
165.000000 364.000000 0
159.000000 399.000000 0
10.000000 361.000000 0
336.000000 359.000000 0
330.000000 362.000000 0
320.000000 283.000000 0
237.000000 269.000000 0
170.000000 233.000000 0
164.000000 405.000000 0
460.000000 121.000000 0
478.000000 178.000000 0
507.000000 116.000000 0
517.000000 162.000000 0
511.000000 165.000000 0
335.000000 253.000000 0
343.000000 237.000000 0
213.000000 295.000000 0
225.000000 314.000000 0
201.000000 329.000000 0
395.000000 462.000000 0
651.000000 244.000000 0
376.000000 391.000000 0
387.000000 395.000000 0
431.000000 391.000000 0
325.000000 415.000000 0
231.000000 352.000000 0
245.000000 352.000000 0
208.000000 285.000000 0
148.000000 208.000000 0
178.000000 193.000000 0
313.000000 299.000000 0
256.000000 293.000000 0
131.000000 188.000000 0
244.000000 10.000000 0
142.000000 203.000000 0
127.000000 172.000000 0
128.000000 183.000000 0
136.000000 163.000000 0
358.000000 385.000000 0
334.000000 444.000000 0
368.000000 443.000000 0
335.000000 455.000000 0
284.000000 466.000000 0
285.000000 459.000000 0
273.000000 485.000000 0
191.000000 406.000000 0
278.000000 429.000000 0
214.000000 391.000000 0
170.000000 408.000000 0
275.000000 496.000000 0
409.000000 228.000000 0
405.000000 231.000000 0
411.000000 222.000000 0
246.000000 281.000000 0
328.000000 268.000000 0
427.000000 203.000000 0
402.000000 152.000000 0
465.000000 184.000000 0
402.000000 238.000000 0
357.000000 215.000000 0
347.000000 229.000000 0
356.000000 214.000000 0
207.000000 398.000000 0
335.000000 496.000000 0
338.000000 486.000000 0
350.000000 389.000000 0
314.000000 386.000000 0
330.000000 363.000000 0
275.000000 420.000000 0
271.000000 411.000000 0
320.000000 400.000000 0
235.000000 332.000000 0
352.000000 418.000000 0
265.000000 307.000000 0
537.000000 148.000000 0
519.000000 117.000000 0
484.000000 117.000000 0
496.000000 116.000000 0
492.000000 173.000000 0
504.000000 167.000000 0
472.000000 119.000000 0
540.000000 121.000000 0
513.000000 115.000000 0
504.000000 115.000000 0
180.000000 342.000000 0
331.000000 260.000000 0
285.000000 335.000000 0
255.000000 373.000000 0
376.000000 392.000000 0
364.000000 386.000000 0
338.000000 466.000000 0
268.000000 402.000000 0
305.000000 367.000000 0
275.000000 321.000000 0
220.000000 333.000000 0
218.000000 389.000000 0
128.000000 176.000000 0
131.000000 165.000000 0
347.000000 402.000000 0
322.000000 363.000000 0
304.000000 339.000000 0
303.000000 326.000000 0
281.000000 472.000000 0
297.000000 499.000000 0
383.000000 174.000000 0
352.000000 222.000000 0
449.000000 190.000000 0
447.000000 193.000000 0
388.000000 169.000000 0
164.000000 226.000000 0
337.000000 479.000000 0
337.000000 459.000000 0
330.000000 499.000000 0
306.000000 313.000000 0
347.000000 395.000000 0
294.000000 350.000000 0
434.000000 200.000000 0
211.000000 330.000000 0
185.000000 407.000000 0
225.000000 382.000000 0
231.000000 372.000000 0
466.000000 119.000000 0
478.000000 117.000000 0
528.000000 156.000000 0
651.000000 361.000000 0
425.000000 389.000000 0
129.000000 168.000000 0
355.000000 386.000000 0
401.000000 151.000000 0
387.000000 168.000000 0
440.000000 196.000000 0
411.000000 142.000000 0
227.000000 340.000000 0

CELLS 430 1720
3 0 1 2
3 3 4 5
3 6 7 8
3 9 10 11
3 12 13 14
3 15 16 17
3 18 19 20
3 21 15 17
3 22 23 24
3 25 26 27
3 25 28 26
3 29 30 31
3 32 33 34
3 35 9 36
3 37 38 39
3 40 41 42
3 43 44 45
3 46 47 48
3 25 49 50
3 51 52 53
3 14 54 55
3 30 56 43
3 57 58 59
3 60 61 21
3 44 43 46
3 62 63 64
3 48 3 65
3 66 67 44
3 68 69 70
3 71 72 2
3 73 74 75
3 11 31 9
3 76 77 35
3 78 79 80
3 81 26 82
3 83 84 85
3 86 87 88
3 89 90 83
3 79 91 92
3 93 37 39
3 94 95 13
3 13 95 54
3 96 97 34
3 34 98 4
3 99 63 49
3 39 38 100
3 12 101 94
3 40 42 101
3 85 102 103
3 52 84 53
3 21 17 51
3 104 105 106
3 4 107 108
3 109 110 111
3 112 75 56
3 113 24 18
3 114 48 115
3 66 116 67
3 80 79 117
3 75 48 47
3 6 118 119
3 111 64 120
3 121 122 38
3 98 123 124
3 68 125 69
3 69 126 70
3 121 127 70
3 71 2 126
3 0 128 129
3 130 2 72
3 96 34 131
3 132 133 134
3 76 35 36
3 135 136 134
3 137 138 91
3 139 117 79
3 39 140 93
3 55 93 92
3 40 141 142
3 40 101 141
3 143 144 145
3 144 27 26
3 146 147 98
3 147 4 98
3 148 87 149
3 89 83 150
3 144 151 152
3 153 49 154
3 155 93 140
3 95 37 93
3 14 13 54
3 94 42 95
3 156 157 112
3 73 75 112
3 158 159 160
3 123 98 34
3 161 162 163
3 119 118 164
3 9 135 10
3 132 165 133
3 145 144 26
3 154 49 25
3 166 110 124
3 118 6 8
3 12 141 101
3 137 142 141
3 52 167 168
3 169 84 170
3 171 172 106
3 171 173 169
3 174 60 52
3 175 84 52
3 105 104 168
3 176 84 175
3 100 50 177
3 49 63 50
3 178 147 146
3 119 179 180
3 65 3 66
3 19 151 143
3 65 46 48
3 47 56 75
3 3 5 66
3 116 23 67
3 31 30 43
3 112 56 30
3 165 181 115
3 182 34 114
3 183 135 134
3 91 79 78
3 184 180 185
3 119 164 186
3 107 99 49
3 146 110 109
3 164 187 110
3 64 63 120
3 162 155 188
3 92 14 55
3 120 109 111
3 146 124 110
3 127 68 70
3 71 189 72
3 125 189 71
3 130 190 2
3 122 121 70
3 38 37 127
3 29 31 156
3 75 133 115
3 163 191 117
3 191 182 181
3 185 32 192
3 193 194 34
3 132 78 80
3 136 195 78
3 36 9 31
3 196 195 135
3 77 91 35
3 91 78 195
3 142 76 36
3 142 77 76
3 79 155 139
3 162 159 163
3 82 197 81
3 149 58 57
3 143 151 144
3 152 198 154
3 19 116 4
3 4 198 152
3 199 200 57
3 148 201 88
3 124 146 98
3 178 4 147
3 99 146 109
3 99 178 146
3 199 90 89
3 83 85 150
3 126 82 26
3 197 201 148
3 28 25 202
3 154 198 153
3 4 108 153
3 107 49 108
3 95 55 54
3 95 93 55
3 12 94 13
3 101 42 94
3 135 203 10
3 183 204 74
3 203 157 11
3 156 112 29
3 205 156 31
3 112 30 29
3 206 123 34
3 206 166 123
3 192 97 160
3 32 34 97
3 207 163 159
3 117 161 163
3 165 191 181
3 34 3 114
3 158 160 96
3 192 32 97
3 185 180 208
3 7 140 39
3 136 78 132
3 117 165 80
3 81 145 26
3 81 209 143
3 166 164 110
3 210 111 110
3 155 92 93
3 211 141 12
3 184 212 180
3 213 7 6
3 16 15 174
3 168 175 52
3 172 171 169
3 214 84 215
3 171 103 173
3 85 84 102
3 216 167 113
3 216 168 167
3 217 24 113
3 103 102 173
3 104 175 168
3 104 170 176
3 104 176 175
3 170 84 176
3 202 100 38
3 25 50 100
3 206 186 166
3 179 193 208
3 107 178 99
3 107 4 178
3 44 67 217
3 66 5 116
3 43 47 46
3 43 56 47
3 44 65 66
3 44 46 65
3 218 116 5
3 4 151 19
3 114 3 48
3 34 4 3
3 165 115 133
3 181 114 115
3 181 182 114
3 131 34 182
3 196 135 9
3 195 136 135
3 179 119 186
3 180 213 6
3 210 64 111
3 62 50 63
3 118 8 64
3 177 50 62
3 180 6 119
3 213 212 7
3 92 211 14
3 14 211 12
3 159 162 184
3 161 155 162
3 99 120 63
3 99 109 120
3 37 125 68
3 129 189 125
3 38 127 121
3 37 68 127
3 189 219 130
3 128 0 219
3 69 71 126
3 69 125 71
3 203 74 73
3 204 134 133
3 11 157 205
3 157 73 112
3 136 132 134
3 80 165 132
3 158 96 220
3 160 97 96
3 33 193 34
3 179 186 194
3 184 185 159
3 208 33 185
3 35 196 9
3 35 195 196
3 35 91 195
3 77 137 91
3 40 142 36
3 137 77 142
3 92 155 79
3 161 117 139
3 88 87 148
3 221 58 149
3 126 222 197
3 126 86 222
3 126 197 82
3 222 201 197
3 144 152 27
3 151 4 152
3 18 24 19
3 23 116 19
3 223 209 57
3 81 197 148
3 18 20 150
3 199 57 59
3 86 83 90
3 86 84 83
3 224 59 58
3 86 90 59
3 27 154 25
3 27 152 154
3 126 122 70
3 126 26 122
3 4 153 198
3 108 49 153
3 203 11 10
3 205 31 11
3 182 191 207
3 165 117 191
3 159 192 160
3 159 185 192
3 180 212 213
3 188 140 7
3 225 187 164
3 118 64 210
3 123 166 124
3 186 164 166
3 138 211 92
3 137 141 211
3 188 155 140
3 161 139 155
3 8 7 39
3 212 184 188
3 51 174 52
3 51 16 174
3 172 169 170
3 215 84 169
3 102 214 173
3 102 84 214
3 104 106 170
3 106 113 171
3 113 60 21
3 60 174 61
3 105 216 113
3 105 168 216
3 167 60 113
3 167 52 60
3 113 18 171
3 18 85 103
3 122 28 38
3 25 100 202
3 206 194 186
3 206 34 194
3 67 22 217
3 67 23 22
3 4 218 5
3 4 116 218
3 133 75 74
3 115 48 75
3 220 131 182
3 220 96 131
3 8 62 64
3 8 177 62
3 39 177 8
3 39 100 177
3 37 129 125
3 37 0 129
3 189 128 219
3 189 129 128
3 189 130 72
3 190 0 2
3 203 183 74
3 203 135 183
3 205 157 156
3 203 73 157
3 193 179 194
3 208 180 179
3 185 33 32
3 208 193 33
3 148 149 57
3 87 221 149
3 86 221 87
3 86 224 221
3 22 24 217
3 23 19 24
3 85 18 150
3 103 171 18
3 222 88 201
3 222 86 88
3 19 143 20
3 209 148 57
3 20 89 150
3 20 199 89
3 221 224 58
3 86 59 224
3 38 28 202
3 122 26 28
3 182 207 220
3 191 163 207
3 212 188 7
3 184 162 188
3 187 210 110
3 187 225 210
3 118 225 164
3 118 210 225
3 91 138 92
3 137 211 138
3 21 51 53
3 17 16 51
3 173 215 169
3 173 214 215
3 170 106 172
3 105 113 106
3 61 15 21
3 61 174 15
3 219 190 130
3 219 0 190
3 74 204 133
3 183 134 204
3 20 143 200
3 81 148 209
3 90 199 59
3 20 200 199
3 207 158 220
3 207 159 158
3 81 143 145
3 209 200 143
3 200 223 57
3 200 209 223

CELL_TYPES 430 
5 5 5 5 5 5 5 5 5 5 5 5 5 5 5 5 5 5 5 5 5 5 5 5 5 5 5 5 5 5 5 5 5 5 5 5 5 5 5 5 5 5 5 5 5 5 5 5 5 5 5 5 5 5 5 5 5 5 5 5 5 5 5 5 5 5 5 5 5 5 5 5 5 5 5 5 5 5 5 5 5 5 5 5 5 5 5 5 5 5 5 5 5 5 5 5 5 5 5 5 5 5 5 5 5 5 5 5 5 5 5 5 5 5 5 5 5 5 5 5 5 5 5 5 5 5 5 5 5 5 5 5 5 5 5 5 5 5 5 5 5 5 5 5 5 5 5 5 5 5 5 5 5 5 5 5 5 5 5 5 5 5 5 5 5 5 5 5 5 5 5 5 5 5 5 5 5 5 5 5 5 5 5 5 5 5 5 5 5 5 5 5 5 5 5 5 5 5 5 5 5 5 5 5 5 5 5 5 5 5 5 5 5 5 5 5 5 5 5 5 5 5 5 5 5 5 5 5 5 5 5 5 5 5 5 5 5 5 5 5 5 5 5 5 5 5 5 5 5 5 5 5 5 5 5 5 5 5 5 5 5 5 5 5 5 5 5 5 5 5 5 5 5 5 5 5 5 5 5 5 5 5 5 5 5 5 5 5 5 5 5 5 5 5 5 5 5 5 5 5 5 5 5 5 5 5 5 5 5 5 5 5 5 5 5 5 5 5 5 5 5 5 5 5 5 5 5 5 5 5 5 5 5 5 5 5 5 5 5 5 5 5 5 5 5 5 5 5 5 5 5 5 5 5 5 5 5 5 5 5 5 5 5 5 5 5 5 5 5 5 5 5 5 5 5 5 5 5 5 5 5 5 5 5 5 5 5 5 5 5 5 5 5 5 5 5 5 5 5 5 5 5 5 5 5 5 5 5 5 5 5 5 5 5 5 5 5 5 5 5 5 5 5 5 5 5 5 5 5 5 CELL_DATA 430
SCALARS scalars float 1
LOOKUP_TABLE gray_colors
1.00
1.00
0.00
0.95
0.04
0.43
1.00
0.99
0.70
1.00
0.99
1.00
0.04
1.00
1.00
1.00
1.00
0.00
0.02
1.00
0.64
0.99
0.01
0.97
1.00
0.99
0.02
1.00
0.01
1.00
0.01
1.00
0.01
0.03
0.02
1.00
1.00
0.01
1.00
0.99
0.99
1.00
0.35
0.03
0.03
1.00
0.05
1.00
0.00
1.00
0.99
0.01
0.02
0.99
0.00
1.00
1.00
0.05
0.03
0.01
0.93
0.97
0.03
0.97
0.02
0.99
0.02
1.00
0.99
1.00
1.00
0.97
1.00
0.03
0.99
0.03
0.00
0.00
1.00
1.00
0.42
0.02
0.97
0.00
0.01
0.01
0.01
1.00
0.01
1.00
0.58
1.00
0.97
0.00
1.00
0.01
0.02
0.91
0.00
0.97
0.00
0.99
0.06
0.02
0.71
0.98
0.02
1.00
0.39
0.00
0.03
1.00
0.01
1.00
0.98
0.04
0.98
0.02
0.01
1.00
0.01
0.00
0.01
0.04
1.00
0.08
0.01
1.00
0.01
0.97
0.02
0.02
0.99
0.04
0.94
0.98
0.99
0.02
0.95
0.05
0.03
0.04
0.01
1.00
0.01
1.00
1.00
0.01
0.98
0.02
0.89
0.03
0.04
0.80
1.00
0.00
0.05
0.95
0.98
0.00
0.99
0.03
0.02
0.01
0.67
0.54
0.99
0.01
0.38
0.01
1.00
0.02
0.03
0.99
0.01
0.01
1.00
0.01
0.00
0.92
0.04
0.99
1.00
0.99
0.07
0.99
0.00
0.99
0.06
0.99
1.00
0.29
0.01
0.97
0.10
0.04
0.98
0.03
0.05
1.00
0.98
0.00
0.03
0.00
0.01
0.97
0.00
0.98
0.03
0.98
0.01
0.06
0.97
0.09
0.12
1.00
0.01
1.00
0.00
0.99
1.00
0.02
1.00
0.00
0.33
0.08
0.91
1.00
0.55
0.01
0.99
0.95
0.99
0.02
1.00
0.01
0.99
0.99
0.99
0.99
0.60
0.99
1.00
0.99
0.03
0.64
0.54
1.00
0.01
0.61
0.04
0.97
0.03
0.99
0.00
1.00
0.95
0.21
0.00
0.00
0.02
0.98
0.02
0.01
0.99
0.16
0.73
0.99
0.03
0.99
1.00
0.02
0.98
0.97
0.07
0.98
0.02
0.99
0.94
0.33
0.03
1.00
0.03
0.96
0.94
0.01
0.03
0.67
1.00
0.17
0.99
0.01
0.03
0.70
1.00
1.00
1.00
0.58
0.01
0.02
1.00
0.00
0.83
0.02
1.00
0.00
1.00
1.00
0.60
1.00
1.00
0.59
0.99
1.00
0.04
1.00
0.01
1.00
0.12
0.98
0.93
0.98
0.96
0.09
0.94
0.00
0.99
0.04
0.27
1.00
0.47
0.97
0.00
1.00
0.71
0.13
0.02
1.00
0.67
1.00
0.00
1.00
1.00
0.00
1.00
0.03
0.99
0.01
1.00
0.01
0.02
0.01
0.96
0.02
1.00
0.56
1.00
0.99
0.01
0.93
0.27
0.99
0.25
0.64
0.25
0.99
0.99
1.00
0.14
0.50
0.03
1.00
0.97
0.02
0.21
0.98
0.95
0.03
0.94
0.90
0.00
0.73
1.00
1.00
1.00
0.26
0.02
0.55
0.46
1.00
1.00
0.59
0.83
0.67
1.00
1.00
0.02
0.99
0.05
1.00
0.57
0.98
0.94
0.13
0.91
0.05
0.99
1.00
1.00
0.38
0.67
0.92
0.00
1.00
0.99
0.07
0.18
0.99
0.96
0.44
1.00
0.80
0.02
0.75
0.11
0.96
0.64
1.00
0.78
1.00
LOOKUP_TABLE gray_colors 255
0.00 0.00 0.00 1.0
0.00 0.00 0.00 1.0
0.01 0.01 0.01 1.0
0.01 0.01 0.01 1.0
0.02 0.02 0.02 1.0
0.02 0.02 0.02 1.0
0.02 0.02 0.02 1.0
0.03 0.03 0.03 1.0
0.03 0.03 0.03 1.0
0.04 0.04 0.04 1.0
0.04 0.04 0.04 1.0
0.04 0.04 0.04 1.0
0.05 0.05 0.05 1.0
0.05 0.05 0.05 1.0
0.06 0.06 0.06 1.0
0.06 0.06 0.06 1.0
0.06 0.06 0.06 1.0
0.07 0.07 0.07 1.0
0.07 0.07 0.07 1.0
0.07 0.07 0.07 1.0
0.08 0.08 0.08 1.0
0.08 0.08 0.08 1.0
0.09 0.09 0.09 1.0
0.09 0.09 0.09 1.0
0.09 0.09 0.09 1.0
0.10 0.10 0.10 1.0
0.10 0.10 0.10 1.0
0.11 0.11 0.11 1.0
0.11 0.11 0.11 1.0
0.11 0.11 0.11 1.0
0.12 0.12 0.12 1.0
0.12 0.12 0.12 1.0
0.13 0.13 0.13 1.0
0.13 0.13 0.13 1.0
0.13 0.13 0.13 1.0
0.14 0.14 0.14 1.0
0.14 0.14 0.14 1.0
0.15 0.15 0.15 1.0
0.15 0.15 0.15 1.0
0.15 0.15 0.15 1.0
0.16 0.16 0.16 1.0
0.16 0.16 0.16 1.0
0.17 0.17 0.17 1.0
0.17 0.17 0.17 1.0
0.17 0.17 0.17 1.0
0.18 0.18 0.18 1.0
0.18 0.18 0.18 1.0
0.19 0.19 0.19 1.0
0.19 0.19 0.19 1.0
0.19 0.19 0.19 1.0
0.20 0.20 0.20 1.0
0.20 0.20 0.20 1.0
0.20 0.20 0.20 1.0
0.21 0.21 0.21 1.0
0.21 0.21 0.21 1.0
0.22 0.22 0.22 1.0
0.22 0.22 0.22 1.0
0.22 0.22 0.22 1.0
0.23 0.23 0.23 1.0
0.23 0.23 0.23 1.0
0.24 0.24 0.24 1.0
0.24 0.24 0.24 1.0
0.24 0.24 0.24 1.0
0.25 0.25 0.25 1.0
0.25 0.25 0.25 1.0
0.26 0.26 0.26 1.0
0.26 0.26 0.26 1.0
0.26 0.26 0.26 1.0
0.27 0.27 0.27 1.0
0.27 0.27 0.27 1.0
0.28 0.28 0.28 1.0
0.28 0.28 0.28 1.0
0.28 0.28 0.28 1.0
0.29 0.29 0.29 1.0
0.29 0.29 0.29 1.0
0.30 0.30 0.30 1.0
0.30 0.30 0.30 1.0
0.30 0.30 0.30 1.0
0.31 0.31 0.31 1.0
0.31 0.31 0.31 1.0
0.31 0.31 0.31 1.0
0.32 0.32 0.32 1.0
0.32 0.32 0.32 1.0
0.33 0.33 0.33 1.0
0.33 0.33 0.33 1.0
0.33 0.33 0.33 1.0
0.34 0.34 0.34 1.0
0.34 0.34 0.34 1.0
0.35 0.35 0.35 1.0
0.35 0.35 0.35 1.0
0.35 0.35 0.35 1.0
0.36 0.36 0.36 1.0
0.36 0.36 0.36 1.0
0.37 0.37 0.37 1.0
0.37 0.37 0.37 1.0
0.37 0.37 0.37 1.0
0.38 0.38 0.38 1.0
0.38 0.38 0.38 1.0
0.39 0.39 0.39 1.0
0.39 0.39 0.39 1.0
0.39 0.39 0.39 1.0
0.40 0.40 0.40 1.0
0.40 0.40 0.40 1.0
0.41 0.41 0.41 1.0
0.41 0.41 0.41 1.0
0.41 0.41 0.41 1.0
0.42 0.42 0.42 1.0
0.42 0.42 0.42 1.0
0.43 0.43 0.43 1.0
0.43 0.43 0.43 1.0
0.43 0.43 0.43 1.0
0.44 0.44 0.44 1.0
0.44 0.44 0.44 1.0
0.44 0.44 0.44 1.0
0.45 0.45 0.45 1.0
0.45 0.45 0.45 1.0
0.46 0.46 0.46 1.0
0.46 0.46 0.46 1.0
0.46 0.46 0.46 1.0
0.47 0.47 0.47 1.0
0.47 0.47 0.47 1.0
0.48 0.48 0.48 1.0
0.48 0.48 0.48 1.0
0.48 0.48 0.48 1.0
0.49 0.49 0.49 1.0
0.49 0.49 0.49 1.0
0.50 0.50 0.50 1.0
0.50 0.50 0.50 1.0
0.50 0.50 0.50 1.0
0.51 0.51 0.51 1.0
0.51 0.51 0.51 1.0
0.52 0.52 0.52 1.0
0.52 0.52 0.52 1.0
0.52 0.52 0.52 1.0
0.53 0.53 0.53 1.0
0.53 0.53 0.53 1.0
0.54 0.54 0.54 1.0
0.54 0.54 0.54 1.0
0.54 0.54 0.54 1.0
0.55 0.55 0.55 1.0
0.55 0.55 0.55 1.0
0.56 0.56 0.56 1.0
0.56 0.56 0.56 1.0
0.56 0.56 0.56 1.0
0.57 0.57 0.57 1.0
0.57 0.57 0.57 1.0
0.57 0.57 0.57 1.0
0.58 0.58 0.58 1.0
0.58 0.58 0.58 1.0
0.59 0.59 0.59 1.0
0.59 0.59 0.59 1.0
0.59 0.59 0.59 1.0
0.60 0.60 0.60 1.0
0.60 0.60 0.60 1.0
0.61 0.61 0.61 1.0
0.61 0.61 0.61 1.0
0.61 0.61 0.61 1.0
0.62 0.62 0.62 1.0
0.62 0.62 0.62 1.0
0.63 0.63 0.63 1.0
0.63 0.63 0.63 1.0
0.63 0.63 0.63 1.0
0.64 0.64 0.64 1.0
0.64 0.64 0.64 1.0
0.65 0.65 0.65 1.0
0.65 0.65 0.65 1.0
0.65 0.65 0.65 1.0
0.66 0.66 0.66 1.0
0.66 0.66 0.66 1.0
0.67 0.67 0.67 1.0
0.67 0.67 0.67 1.0
0.67 0.67 0.67 1.0
0.68 0.68 0.68 1.0
0.68 0.68 0.68 1.0
0.69 0.69 0.69 1.0
0.69 0.69 0.69 1.0
0.69 0.69 0.69 1.0
0.70 0.70 0.70 1.0
0.70 0.70 0.70 1.0
0.70 0.70 0.70 1.0
0.71 0.71 0.71 1.0
0.71 0.71 0.71 1.0
0.72 0.72 0.72 1.0
0.72 0.72 0.72 1.0
0.72 0.72 0.72 1.0
0.73 0.73 0.73 1.0
0.73 0.73 0.73 1.0
0.74 0.74 0.74 1.0
0.74 0.74 0.74 1.0
0.74 0.74 0.74 1.0
0.75 0.75 0.75 1.0
0.75 0.75 0.75 1.0
0.76 0.76 0.76 1.0
0.76 0.76 0.76 1.0
0.76 0.76 0.76 1.0
0.77 0.77 0.77 1.0
0.77 0.77 0.77 1.0
0.78 0.78 0.78 1.0
0.78 0.78 0.78 1.0
0.78 0.78 0.78 1.0
0.79 0.79 0.79 1.0
0.79 0.79 0.79 1.0
0.80 0.80 0.80 1.0
0.80 0.80 0.80 1.0
0.80 0.80 0.80 1.0
0.81 0.81 0.81 1.0
0.81 0.81 0.81 1.0
0.81 0.81 0.81 1.0
0.82 0.82 0.82 1.0
0.82 0.82 0.82 1.0
0.83 0.83 0.83 1.0
0.83 0.83 0.83 1.0
0.83 0.83 0.83 1.0
0.84 0.84 0.84 1.0
0.84 0.84 0.84 1.0
0.85 0.85 0.85 1.0
0.85 0.85 0.85 1.0
0.85 0.85 0.85 1.0
0.86 0.86 0.86 1.0
0.86 0.86 0.86 1.0
0.87 0.87 0.87 1.0
0.87 0.87 0.87 1.0
0.87 0.87 0.87 1.0
0.88 0.88 0.88 1.0
0.88 0.88 0.88 1.0
0.89 0.89 0.89 1.0
0.89 0.89 0.89 1.0
0.89 0.89 0.89 1.0
0.90 0.90 0.90 1.0
0.90 0.90 0.90 1.0
0.91 0.91 0.91 1.0
0.91 0.91 0.91 1.0
0.91 0.91 0.91 1.0
0.92 0.92 0.92 1.0
0.92 0.92 0.92 1.0
0.93 0.93 0.93 1.0
0.93 0.93 0.93 1.0
0.93 0.93 0.93 1.0
0.94 0.94 0.94 1.0
0.94 0.94 0.94 1.0
0.94 0.94 0.94 1.0
0.95 0.95 0.95 1.0
0.95 0.95 0.95 1.0
0.96 0.96 0.96 1.0
0.96 0.96 0.96 1.0
0.96 0.96 0.96 1.0
0.97 0.97 0.97 1.0
0.97 0.97 0.97 1.0
0.98 0.98 0.98 1.0
0.98 0.98 0.98 1.0
0.98 0.98 0.98 1.0
0.99 0.99 0.99 1.0
0.99 0.99 0.99 1.0
1.00 1.00 1.00 1.0
1.00 1.00 1.00 1.0
