# vtk DataFile Version 3.0
vtk output
ASCII
DATASET POLYDATA
POINTS 1700 float
614 210.5 0 614.345 210.489 0 614.689 210.457 0 
615.031 210.403 0 615.368 210.327 0 615.7 210.231 0 
616.025 210.114 0 616.342 209.977 0 616.65 209.82 0 
616.947 209.644 0 617.233 209.45 0 617.506 209.238 0 
617.765 209.009 0 618.009 208.765 0 618.238 208.506 0 
618.45 208.233 0 618.644 207.947 0 618.82 207.65 0 
618.977 207.342 0 619.114 207.025 0 619.231 206.7 0 
619.327 206.368 0 619.403 206.031 0 619.457 205.689 0 
619.489 205.345 0 619.5 205 0 619.489 204.655 0 
619.457 204.311 0 619.403 203.969 0 619.327 203.632 0 
619.231 203.3 0 619.114 202.975 0 618.977 202.658 0 
618.82 202.35 0 618.644 202.053 0 618.45 201.767 0 
618.238 201.494 0 618.009 201.235 0 617.765 200.991 0 
617.506 200.762 0 617.233 200.55 0 616.947 200.356 0 
616.65 200.18 0 616.342 200.023 0 616.025 199.886 0 
615.7 199.769 0 615.368 199.673 0 615.031 199.597 0 
614.689 199.543 0 614.345 199.511 0 614 199.5 0 
613.655 199.511 0 613.311 199.543 0 612.969 199.597 0 
612.632 199.673 0 612.3 199.769 0 611.975 199.886 0 
611.658 200.023 0 611.35 200.18 0 611.053 200.356 0 
610.767 200.55 0 610.494 200.762 0 610.235 200.991 0 
609.991 201.235 0 609.762 201.494 0 609.55 201.767 0 
609.356 202.053 0 609.18 202.35 0 609.023 202.658 0 
608.886 202.975 0 608.769 203.3 0 608.673 203.632 0 
608.597 203.969 0 608.543 204.311 0 608.511 204.655 0 
608.5 205 0 608.511 205.345 0 608.543 205.689 0 
608.597 206.031 0 608.673 206.368 0 608.769 206.7 0 
608.886 207.025 0 609.023 207.342 0 609.18 207.65 0 
609.356 207.947 0 609.55 208.233 0 609.762 208.506 0 
609.991 208.765 0 610.235 209.009 0 610.494 209.238 0 
610.767 209.45 0 611.053 209.644 0 611.35 209.82 0 
611.658 209.977 0 611.975 210.114 0 612.3 210.231 0 
612.632 210.327 0 612.969 210.403 0 613.311 210.457 0 
613.655 210.489 0 1058 297.5 0 1058.35 297.489 0 
1058.69 297.457 0 1059.03 297.403 0 1059.37 297.327 0 
1059.7 297.231 0 1060.02 297.114 0 1060.34 296.977 0 
1060.65 296.82 0 1060.95 296.644 0 1061.23 296.45 0 
1061.51 296.238 0 1061.77 296.009 0 1062.01 295.765 0 
1062.24 295.506 0 1062.45 295.233 0 1062.64 294.947 0 
1062.82 294.65 0 1062.98 294.342 0 1063.11 294.025 0 
1063.23 293.7 0 1063.33 293.368 0 1063.4 293.031 0 
1063.46 292.689 0 1063.49 292.345 0 1063.5 292 0 
1063.49 291.655 0 1063.46 291.311 0 1063.4 290.969 0 
1063.33 290.632 0 1063.23 290.3 0 1063.11 289.975 0 
1062.98 289.658 0 1062.82 289.35 0 1062.64 289.053 0 
1062.45 288.767 0 1062.24 288.494 0 1062.01 288.235 0 
1061.77 287.991 0 1061.51 287.762 0 1061.23 287.55 0 
1060.95 287.356 0 1060.65 287.18 0 1060.34 287.023 0 
1060.02 286.886 0 1059.7 286.769 0 1059.37 286.673 0 
1059.03 286.597 0 1058.69 286.543 0 1058.35 286.511 0 
1058 286.5 0 1057.65 286.511 0 1057.31 286.543 0 
1056.97 286.597 0 1056.63 286.673 0 1056.3 286.769 0 
1055.98 286.886 0 1055.66 287.023 0 1055.35 287.18 0 
1055.05 287.356 0 1054.77 287.55 0 1054.49 287.762 0 
1054.23 287.991 0 1053.99 288.235 0 1053.76 288.494 0 
1053.55 288.767 0 1053.36 289.053 0 1053.18 289.35 0 
1053.02 289.658 0 1052.89 289.975 0 1052.77 290.3 0 
1052.67 290.632 0 1052.6 290.969 0 1052.54 291.311 0 
1052.51 291.655 0 1052.5 292 0 1052.51 292.345 0 
1052.54 292.689 0 1052.6 293.031 0 1052.67 293.368 0 
1052.77 293.7 0 1052.89 294.025 0 1053.02 294.342 0 
1053.18 294.65 0 1053.36 294.947 0 1053.55 295.233 0 
1053.76 295.506 0 1053.99 295.765 0 1054.23 296.009 0 
1054.49 296.238 0 1054.77 296.45 0 1055.05 296.644 0 
1055.35 296.82 0 1055.66 296.977 0 1055.98 297.114 0 
1056.3 297.231 0 1056.63 297.327 0 1056.97 297.403 0 
1057.31 297.457 0 1057.65 297.489 0 273 480.5 0 
273.345 480.489 0 273.689 480.457 0 274.031 480.403 0 
274.368 480.327 0 274.7 480.231 0 275.025 480.114 0 
275.342 479.977 0 275.65 479.82 0 275.947 479.644 0 
276.233 479.45 0 276.506 479.238 0 276.765 479.009 0 
277.009 478.765 0 277.238 478.506 0 277.45 478.233 0 
277.644 477.947 0 277.82 477.65 0 277.977 477.342 0 
278.114 477.025 0 278.231 476.7 0 278.327 476.368 0 
278.403 476.031 0 278.457 475.689 0 278.489 475.345 0 
278.5 475 0 278.489 474.655 0 278.457 474.311 0 
278.403 473.969 0 278.327 473.632 0 278.231 473.3 0 
278.114 472.975 0 277.977 472.658 0 277.82 472.35 0 
277.644 472.053 0 277.45 471.767 0 277.238 471.494 0 
277.009 471.235 0 276.765 470.991 0 276.506 470.762 0 
276.233 470.55 0 275.947 470.356 0 275.65 470.18 0 
275.342 470.023 0 275.025 469.886 0 274.7 469.769 0 
274.368 469.673 0 274.031 469.597 0 273.689 469.543 0 
273.345 469.511 0 273 469.5 0 272.655 469.511 0 
272.311 469.543 0 271.969 469.597 0 271.632 469.673 0 
271.3 469.769 0 270.975 469.886 0 270.658 470.023 0 
270.35 470.18 0 270.053 470.356 0 269.767 470.55 0 
269.494 470.762 0 269.235 470.991 0 268.991 471.235 0 
268.762 471.494 0 268.55 471.767 0 268.356 472.053 0 
268.18 472.35 0 268.023 472.658 0 267.886 472.975 0 
267.769 473.3 0 267.673 473.632 0 267.597 473.969 0 
267.543 474.311 0 267.511 474.655 0 267.5 475 0 
267.511 475.345 0 267.543 475.689 0 267.597 476.031 0 
267.673 476.368 0 267.769 476.7 0 267.886 477.025 0 
268.023 477.342 0 268.18 477.65 0 268.356 477.947 0 
268.55 478.233 0 268.762 478.506 0 268.991 478.765 0 
269.235 479.009 0 269.494 479.238 0 269.767 479.45 0 
270.053 479.644 0 270.35 479.82 0 270.658 479.977 0 
270.975 480.114 0 271.3 480.231 0 271.632 480.327 0 
271.969 480.403 0 272.311 480.457 0 272.655 480.489 0 
629 214.5 0 629.345 214.489 0 629.689 214.457 0 
630.031 214.403 0 630.368 214.327 0 630.7 214.231 0 
631.025 214.114 0 631.342 213.977 0 631.65 213.82 0 
631.947 213.644 0 632.233 213.45 0 632.506 213.238 0 
632.765 213.009 0 633.009 212.765 0 633.238 212.506 0 
633.45 212.233 0 633.644 211.947 0 633.82 211.65 0 
633.977 211.342 0 634.114 211.025 0 634.231 210.7 0 
634.327 210.368 0 634.403 210.031 0 634.457 209.689 0 
634.489 209.345 0 634.5 209 0 634.489 208.655 0 
634.457 208.311 0 634.403 207.969 0 634.327 207.632 0 
634.231 207.3 0 634.114 206.975 0 633.977 206.658 0 
633.82 206.35 0 633.644 206.053 0 633.45 205.767 0 
633.238 205.494 0 633.009 205.235 0 632.765 204.991 0 
632.506 204.762 0 632.233 204.55 0 631.947 204.356 0 
631.65 204.18 0 631.342 204.023 0 631.025 203.886 0 
630.7 203.769 0 630.368 203.673 0 630.031 203.597 0 
629.689 203.543 0 629.345 203.511 0 629 203.5 0 
628.655 203.511 0 628.311 203.543 0 627.969 203.597 0 
627.632 203.673 0 627.3 203.769 0 626.975 203.886 0 
626.658 204.023 0 626.35 204.18 0 626.053 204.356 0 
625.767 204.55 0 625.494 204.762 0 625.235 204.991 0 
624.991 205.235 0 624.762 205.494 0 624.55 205.767 0 
624.356 206.053 0 624.18 206.35 0 624.023 206.658 0 
623.886 206.975 0 623.769 207.3 0 623.673 207.632 0 
623.597 207.969 0 623.543 208.311 0 623.511 208.655 0 
623.5 209 0 623.511 209.345 0 623.543 209.689 0 
623.597 210.031 0 623.673 210.368 0 623.769 210.7 0 
623.886 211.025 0 624.023 211.342 0 624.18 211.65 0 
624.356 211.947 0 624.55 212.233 0 624.762 212.506 0 
624.991 212.765 0 625.235 213.009 0 625.494 213.238 0 
625.767 213.45 0 626.053 213.644 0 626.35 213.82 0 
626.658 213.977 0 626.975 214.114 0 627.3 214.231 0 
627.632 214.327 0 627.969 214.403 0 628.311 214.457 0 
628.655 214.489 0 204 463.5 0 204.345 463.489 0 
204.689 463.457 0 205.031 463.403 0 205.368 463.327 0 
205.7 463.231 0 206.025 463.114 0 206.342 462.977 0 
206.65 462.82 0 206.947 462.644 0 207.233 462.45 0 
207.506 462.238 0 207.765 462.009 0 208.009 461.765 0 
208.238 461.506 0 208.45 461.233 0 208.644 460.947 0 
208.82 460.65 0 208.977 460.342 0 209.114 460.025 0 
209.231 459.7 0 209.327 459.368 0 209.403 459.031 0 
209.457 458.689 0 209.489 458.345 0 209.5 458 0 
209.489 457.655 0 209.457 457.311 0 209.403 456.969 0 
209.327 456.632 0 209.231 456.3 0 209.114 455.975 0 
208.977 455.658 0 208.82 455.35 0 208.644 455.053 0 
208.45 454.767 0 208.238 454.494 0 208.009 454.235 0 
207.765 453.991 0 207.506 453.762 0 207.233 453.55 0 
206.947 453.356 0 206.65 453.18 0 206.342 453.023 0 
206.025 452.886 0 205.7 452.769 0 205.368 452.673 0 
205.031 452.597 0 204.689 452.543 0 204.345 452.511 0 
204 452.5 0 203.655 452.511 0 203.311 452.543 0 
202.969 452.597 0 202.632 452.673 0 202.3 452.769 0 
201.975 452.886 0 201.658 453.023 0 201.35 453.18 0 
201.053 453.356 0 200.767 453.55 0 200.494 453.762 0 
200.235 453.991 0 199.991 454.235 0 199.762 454.494 0 
199.55 454.767 0 199.356 455.053 0 199.18 455.35 0 
199.023 455.658 0 198.886 455.975 0 198.769 456.3 0 
198.673 456.632 0 198.597 456.969 0 198.543 457.311 0 
198.511 457.655 0 198.5 458 0 198.511 458.345 0 
198.543 458.689 0 198.597 459.031 0 198.673 459.368 0 
198.769 459.7 0 198.886 460.025 0 199.023 460.342 0 
199.18 460.65 0 199.356 460.947 0 199.55 461.233 0 
199.762 461.506 0 199.991 461.765 0 200.235 462.009 0 
200.494 462.238 0 200.767 462.45 0 201.053 462.644 0 
201.35 462.82 0 201.658 462.977 0 201.975 463.114 0 
202.3 463.231 0 202.632 463.327 0 202.969 463.403 0 
203.311 463.457 0 203.655 463.489 0 937 418.5 0 
937.345 418.489 0 937.689 418.457 0 938.031 418.403 0 
938.368 418.327 0 938.7 418.231 0 939.025 418.114 0 
939.342 417.977 0 939.65 417.82 0 939.947 417.644 0 
940.233 417.45 0 940.506 417.238 0 940.765 417.009 0 
941.009 416.765 0 941.238 416.506 0 941.45 416.233 0 
941.644 415.947 0 941.82 415.65 0 941.977 415.342 0 
942.114 415.025 0 942.231 414.7 0 942.327 414.368 0 
942.403 414.031 0 942.457 413.689 0 942.489 413.345 0 
942.5 413 0 942.489 412.655 0 942.457 412.311 0 
942.403 411.969 0 942.327 411.632 0 942.231 411.3 0 
942.114 410.975 0 941.977 410.658 0 941.82 410.35 0 
941.644 410.053 0 941.45 409.767 0 941.238 409.494 0 
941.009 409.235 0 940.765 408.991 0 940.506 408.762 0 
940.233 408.55 0 939.947 408.356 0 939.65 408.18 0 
939.342 408.023 0 939.025 407.886 0 938.7 407.769 0 
938.368 407.673 0 938.031 407.597 0 937.689 407.543 0 
937.345 407.511 0 937 407.5 0 936.655 407.511 0 
936.311 407.543 0 935.969 407.597 0 935.632 407.673 0 
935.3 407.769 0 934.975 407.886 0 934.658 408.023 0 
[...]
POINT_DATA 1700
SCALARS scales float
LOOKUP_TABLE default
11 11 11 11 11 11 11 11 11 
11 11 11 11 11 11 11 11 11 
11 11 11 11 11 11 11 11 11 
11 11 11 11 11 11 11 11 11 
11 11 11 11 11 11 11 11 11 
11 11 11 11 11 11 11 11 11 
11 11 11 11 11 11 11 11 11 
11 11 11 11 11 11 11 11 11 
11 11 11 11 11 11 11 11 11 
11 11 11 11 11 11 11 11 11 
11 11 11 11 11 11 11 11 11 
11 11 11 11 11 11 11 11 11 
11 11 11 11 11 11 11 11 11 
11 11 11 11 11 11 11 11 11 
11 11 11 11 11 11 11 11 11 
11 11 11 11 11 11 11 11 11 
11 11 11 11 11 11 11 11 11 
11 11 11 11 11 11 11 11 11 
11 11 11 11 11 11 11 11 11 
11 11 11 11 11 11 11 11 11 
11 11 11 11 11 11 11 11 11 
11 11 11 11 11 11 11 11 11 
11 11 11 11 11 11 11 11 11 
11 11 11 11 11 11 11 11 11 
11 11 11 11 11 11 11 11 11 
11 11 11 11 11 11 11 11 11 
11 11 11 11 11 11 11 11 11 
11 11 11 11 11 11 11 11 11 
11 11 11 11 11 11 11 11 11 
11 11 11 11 11 11 11 11 11 
11 11 11 11 11 11 11 11 11 
11 11 11 11 11 11 11 11 11 
11 11 11 11 11 11 11 11 11 
11 11 11 11 11 11 11 11 11 
11 11 11 11 11 11 11 11 11 
11 11 11 11 11 11 11 11 11 
11 11 11 11 11 11 11 11 11 
11 11 11 11 11 11 11 11 11 
11 11 11 11 11 11 11 11 11 
11 11 11 11 11 11 11 11 11 
11 11 11 11 11 11 11 11 11 
11 11 11 11 11 11 11 11 11 
11 11 11 11 11 11 11 11 11 
11 11 11 11 11 11 11 11 11 
11 11 11 11 11 11 11 11 11 
11 11 11 11 11 11 11 11 11 
11 11 11 11 11 11 11 11 11 
11 11 11 11 11 11 11 11 11 
11 11 11 11 11 11 11 11 11 
11 11 11 11 11 11 11 11 11 
11 11 11 11 11 11 11 11 11 
11 11 11 11 11 11 11 11 11 
11 11 11 11 11 11 11 11 11 
11 11 11 11 11 11 11 11 11 
11 11 11 11 11 11 11 11 11 
11 11 11 11 11 11 11 11 11 
11 11 11 11 11 11 11 11 11 
11 11 11 11 11 11 11 11 11 
11 11 11 11 11 11 11 11 11 
11 11 11 11 11 11 11 11 11 
11 11 11 11 11 11 11 11 11 
11 11 11 11 11 11 11 11 11 
11 11 11 11 11 11 11 11 11 
11 11 11 11 11 11 11 11 11 
11 11 11 11 11 11 11 11 11 
11 11 11 11 11 11 11 11 11 
11 11 11 11 11 11 11 11 11 
11 11 11 11 11 11 11 11 11 
11 11 11 11 11 11 11 11 11 
11 11 11 11 11 11 11 11 11 
11 11 11 11 11 11 11 11 11 
11 11 11 11 11 11 11 11 11 
11 11 11 11 11 11 11 11 11 
11 11 11 11 11 11 11 11 11 
11 11 11 11 11 11 11 11 11 
11 11 11 11 11 11 11 11 11 
11 11 11 11 11 11 11 11 11 
11 11 11 11 11 11 11 11 11 
11 11 11 11 11 11 11 11 11 
11 11 11 11 11 11 11 11 11 
11 11 11 11 11 11 11 11 11 
11 11 11 11 11 11 11 11 11 
11 11 11 11 11 11 11 11 11 
11 11 11 11 11 11 11 11 11 
11 11 11 11 11 11 11 11 11 
11 11 11 11 11 11 11 11 11 
11 11 11 11 11 11 11 11 11 
11 11 11 11 11 11 11 11 11 
11 11 11 11 11 11 11 11 11 
11 11 11 11 11 11 11 11 11 
11 11 11 11 11 11 11 11 11 
11 11 11 11 11 11 11 11 11 
11 11 11 11 11 11 11 11 11 
11 11 11 11 11 11 11 11 11 
11 11 11 11 11 11 11 11 11 
11 11 11 11 11 11 11 11 11 
11 11 11 11 11 11 11 11 11 
11 11 11 11 11 11 11 11 11 
11 11 11 11 11 11 11 11 11 
11 11 11 11 11 11 11 11 11 
11 11 11 11 11 11 11 11 11 
11 11 11 11 11 11 11 11 11 
11 11 11 11 11 11 11 11 11 
11 11 11 11 11 11 11 11 11 
11 11 11 11 11 11 11 11 11 
11 11 11 11 11 11 11 11 11 
11 11 11 11 11 11 11 11 11 
11 11 11 11 11 11 11 11 11 
11 11 11 11 11 11 11 11 11 
11 11 11 11 11 11 11 11 11 
11 11 11 11 11 11 11 11 11 
11 11 11 11 11 11 11 11 11 
11 11 11 11 11 11 11 11 11 
11 11 11 11 11 11 11 11 11 
11 11 11 11 11 11 11 11 11 
11 11 11 11 11 11 11 11 11 
11 11 11 11 11 11 11 11 11 
11 11 11 11 11 11 11 11 11 
11 11 11 11 11 11 11 11 11 
11 11 11 11 11 11 11 11 11 
11 11 11 11 11 11 11 11 11 
11 11 11 11 11 11 11 11 11 
11 11 11 11 11 11 11 11 11 
11 11 11 11 11 11 11 11 11 
11 11 11 11 11 11 11 11 11 
11 11 11 11 11 11 11 11 11 
11 11 11 11 11 11 11 11 11 
11 11 11 11 11 11 11 11 11 
11 11 11 11 11 11 11 11 11 
11 11 11 11 11 11 11 11 11 
11 11 11 11 11 11 11 11 11 
11 11 11 11 11 11 11 11 11 
11 11 11 11 11 11 11 11 11 
11 11 11 11 11 11 11 11 11 
11 11 11 11 11 11 11 11 11 
11 11 11 11 11 11 11 11 11 
11 11 11 11 11 11 11 11 11 
11 11 11 11 11 11 11 11 11 
11 11 11 11 11 11 11 11 11 
11 11 11 11 11 11 11 11 11 
11 11 11 11 11 11 11 11 11 
11 11 11 11 11 11 11 11 11 
11 11 11 11 11 11 11 11 11 
11 11 11 11 11 11 11 11 11 
11 11 11 11 11 11 11 11 11 
11 11 11 11 11 11 11 11 11 
11 11 11 11 11 11 11 11 11 
11 11 11 11 11 11 11 11 11 
11 11 11 11 11 11 11 11 11 
11 11 11 11 11 11 11 11 11 
11 11 11 11 11 11 11 11 11 
11 11 11 11 11 11 11 11 11 
11 11 11 11 11 11 11 11 11 
11 11 11 11 11 11 11 11 11 
11 11 11 11 11 11 11 11 11 
11 11 11 11 11 11 11 11 11 
11 11 11 11 11 11 11 11 11 
11 11 11 11 11 11 11 11 11 
11 11 11 11 11 11 11 11 11 
11 11 11 11 11 11 11 11 11 
11 11 11 11 11 11 11 11 11 
11 11 11 11 11 11 11 11 11 
11 11 11 11 11 11 11 11 11 
11 11 11 11 11 11 11 11 11 
11 11 11 11 11 11 11 11 11 
11 11 11 11 11 11 11 11 11 
11 11 11 11 11 11 11 11 11 
11 11 11 11 11 11 11 11 11 
11 11 11 11 11 11 11 11 11 
11 11 11 11 11 11 11 11 11 
11 11 11 11 11 11 11 11 11 
11 11 11 11 11 11 11 11 11 
11 11 11 11 11 11 11 11 11 
11 11 11 11 11 11 11 11 11 
11 11 11 11 11 11 11 11 11 
11 11 11 11 11 11 11 11 11 
11 11 11 11 11 11 11 11 11 
11 11 11 11 11 11 11 11 11 
11 11 11 11 11 11 11 11 11 
11 11 11 11 11 11 11 11 11 
11 11 11 11 11 11 11 11 11 
11 11 11 11 11 11 11 11 11 
11 11 11 11 11 11 11 11 11 
11 11 11 11 11 11 11 11 11 
11 11 11 11 11 11 11 11 11 
11 11 11 11 11 11 11 11 11 
11 11 11 11 11 11 11 11 11 
11 11 11 11 11 11 11 11 11 
11 11 11 11 11 11 11 11 
FIELD FieldData 1
Colors 3 1700 unsigned_char
153 0 153 153 0 153 153 0 153 
153 0 153 153 0 153 153 0 153 
153 0 153 153 0 153 153 0 153 
153 0 153 153 0 153 153 0 153 
153 0 153 153 0 153 153 0 153 
153 0 153 153 0 153 153 0 153 
153 0 153 153 0 153 153 0 153 
153 0 153 153 0 153 153 0 153 
153 0 153 153 0 153 153 0 153 
153 0 153 153 0 153 153 0 153 
153 0 153 153 0 153 153 0 153 
153 0 153 153 0 153 153 0 153 
153 0 153 153 0 153 153 0 153 
153 0 153 153 0 153 153 0 153 
153 0 153 153 0 153 153 0 153 
153 0 153 153 0 153 153 0 153 
153 0 153 153 0 153 153 0 153 
153 0 153 153 0 153 153 0 153 
153 0 153 153 0 153 153 0 153 
153 0 153 153 0 153 153 0 153 
153 0 153 153 0 153 153 0 153 
153 0 153 153 0 153 153 0 153 
153 0 153 153 0 153 153 0 153 
153 0 153 153 0 153 153 0 153 
153 0 153 153 0 153 153 0 153 
153 0 153 153 0 153 153 0 153 
153 0 153 153 0 153 153 0 153 
153 0 153 153 0 153 153 0 153 
153 0 153 153 0 153 153 0 153 
153 0 153 153 0 153 153 0 153 
153 0 153 153 0 153 153 0 153 
153 0 153 153 0 153 153 0 153 
153 0 153 153 0 153 153 0 153 
153 0 153 153 0 153 153 0 153 
153 0 153 153 0 153 153 0 153 
153 0 153 153 0 153 153 0 153 
153 0 153 153 0 153 153 0 153 
153 0 153 153 0 153 153 0 153 
153 0 153 153 0 153 153 0 153 
153 0 153 153 0 153 153 0 153 
153 0 153 153 0 153 153 0 153 
153 0 153 153 0 153 153 0 153 
153 0 153 153 0 153 153 0 153 
153 0 153 153 0 153 153 0 153 
153 0 153 153 0 153 153 0 153 
153 0 153 153 0 153 153 0 153 
153 0 153 153 0 153 153 0 153 
153 0 153 153 0 153 153 0 153 
153 0 153 153 0 153 153 0 153 
153 0 153 153 0 153 153 0 153 
153 0 153 153 0 153 153 0 153 
153 0 153 153 0 153 153 0 153 
153 0 153 153 0 153 153 0 153 
153 0 153 153 0 153 153 0 153 
153 0 153 153 0 153 153 0 153 
153 0 153 153 0 153 153 0 153 
153 0 153 153 0 153 153 0 153 
153 0 153 153 0 153 153 0 153 
153 0 153 153 0 153 153 0 153 
153 0 153 153 0 153 153 0 153 
153 0 153 153 0 153 153 0 153 
153 0 153 153 0 153 153 0 153 
153 0 153 153 0 153 153 0 153 
153 0 153 153 0 153 153 0 153 
153 0 153 153 0 153 153 0 153 
153 0 153 153 0 153 153 0 153 
153 0 153 153 0 153 153 0 153 
153 0 153 153 0 153 153 0 153 
153 0 153 153 0 153 153 0 153 
153 0 153 153 0 153 153 0 153 
153 0 153 153 0 153 153 0 153 
153 0 153 153 0 153 153 0 153 
153 0 153 153 0 153 153 0 153 
153 0 153 153 0 153 153 0 153 
153 0 153 153 0 153 153 0 153 
153 0 153 153 0 153 153 0 153 
153 0 153 153 0 153 153 0 153 
153 0 153 153 0 153 153 0 153 
153 0 153 153 0 153 153 0 153 
153 0 153 153 0 153 153 0 153 
153 0 153 153 0 153 153 0 153 
153 0 153 153 0 153 153 0 153 
153 0 153 153 0 153 153 0 153 
153 0 153 153 0 153 153 0 153 
153 0 153 153 0 153 153 0 153 
153 0 153 153 0 153 153 0 153 
153 0 153 153 0 153 153 0 153 
153 0 153 153 0 153 153 0 153 
153 0 153 153 0 153 153 0 153 
153 0 153 153 0 153 153 0 153 
153 0 153 153 0 153 153 0 153 
153 0 153 153 0 153 153 0 153 
153 0 153 153 0 153 153 0 153 
153 0 153 153 0 153 153 0 153 
153 0 153 153 0 153 153 0 153 
153 0 153 153 0 153 153 0 153 
153 0 153 153 0 153 153 0 153 
153 0 153 153 0 153 153 0 153 
153 0 153 153 0 153 153 0 153 
153 0 153 153 0 153 153 0 153 
153 0 153 153 0 153 153 0 153 
153 0 153 153 0 153 153 0 153 
153 0 153 153 0 153 153 0 153 
153 0 153 153 0 153 153 0 153 
153 0 153 153 0 153 153 0 153 
153 0 153 153 0 153 153 0 153 
153 0 153 153 0 153 153 0 153 
153 0 153 153 0 153 153 0 153 
153 0 153 153 0 153 153 0 153 
153 0 153 153 0 153 153 0 153 
153 0 153 153 0 153 153 0 153 
153 0 153 153 0 153 153 0 153 
153 0 153 153 0 153 153 0 153 
153 0 153 153 0 153 153 0 153 
153 0 153 153 0 153 153 0 153 
153 0 153 153 0 153 153 0 153 
153 0 153 153 0 153 153 0 153 
153 0 153 153 0 153 153 0 153 
153 0 153 153 0 153 153 0 153 
153 0 153 153 0 153 153 0 153 
153 0 153 153 0 153 153 0 153 
153 0 153 153 0 153 153 0 153 
153 0 153 153 0 153 153 0 153 
153 0 153 153 0 153 153 0 153 
153 0 153 153 0 153 153 0 153 
153 0 153 153 0 153 153 0 153 
153 0 153 153 0 153 153 0 153 
153 0 153 153 0 153 153 0 153 
153 0 153 153 0 153 153 0 153 
153 0 153 153 0 153 153 0 153 
153 0 153 153 0 153 153 0 153 
153 0 153 153 0 153 153 0 153 
153 0 153 153 0 153 153 0 153 
153 0 153 153 0 153 153 0 153 
153 0 153 153 0 153 153 0 153 
153 0 153 153 0 153 153 0 153 
153 0 153 153 0 153 153 0 153 
153 0 153 153 0 153 153 0 153 
153 0 153 153 0 153 153 0 153 
153 0 153 153 0 153 153 0 153 
153 0 153 153 0 153 153 0 153 
153 0 153 153 0 153 153 0 153 
153 0 153 153 0 153 153 0 153 
153 0 153 153 0 153 153 0 153 
153 0 153 153 0 153 153 0 153 
153 0 153 153 0 153 153 0 153 
153 0 153 153 0 153 153 0 153 
153 0 153 153 0 153 153 0 153 
153 0 153 153 0 153 153 0 153 
153 0 153 153 0 153 153 0 153 
153 0 153 153 0 153 153 0 153 
153 0 153 153 0 153 153 0 153 
153 0 153 153 0 153 153 0 153 
153 0 153 153 0 153 153 0 153 
153 0 153 153 0 153 153 0 153 
153 0 153 153 0 153 153 0 153 
153 0 153 153 0 153 153 0 153 
153 0 153 153 0 153 153 0 153 
153 0 153 153 0 153 153 0 153 
153 0 153 153 0 153 153 0 153 
153 0 153 153 0 153 153 0 153 
153 0 153 153 0 153 153 0 153 
153 0 153 153 0 153 153 0 153 
153 0 153 153 0 153 153 0 153 
153 0 153 153 0 153 153 0 153 
153 0 153 153 0 153 153 0 153 
153 0 153 153 0 153 153 0 153 
153 0 153 153 0 153 153 0 153 
153 0 153 153 0 153 153 0 153 
153 0 153 153 0 153 153 0 153 
153 0 153 153 0 153 153 0 153 
153 0 153 153 0 153 153 0 153 
153 0 153 153 0 153 153 0 153 
153 0 153 153 0 153 153 0 153 
153 0 153 153 0 153 153 0 153 
153 0 153 153 0 153 153 0 153 
153 0 153 153 0 153 153 0 153 
153 0 153 153 0 153 153 0 153 
153 0 153 153 0 153 153 0 153 
153 0 153 153 0 153 153 0 153 
153 0 153 153 0 153 153 0 153 
153 0 153 153 0 153 153 0 153 
153 0 153 153 0 153 153 0 153 
153 0 153 153 0 153 153 0 153 
153 0 153 153 0 153 153 0 153 
153 0 153 153 0 153 153 0 153 
153 0 153 153 0 153 153 0 153 
153 0 153 153 0 153 153 0 153 
153 0 153 153 0 153 153 0 153 
153 0 153 153 0 153 153 0 153 
153 0 153 153 0 153 153 0 153 
153 0 153 153 0 153 153 0 153 
153 0 153 153 0 153 153 0 153 
153 0 153 153 0 153 153 0 153 
153 0 153 153 0 153 153 0 153 
153 0 153 153 0 153 153 0 153 
153 0 153 153 0 153 153 0 153 
153 0 153 153 0 153 153 0 153 
153 0 153 153 0 153 153 0 153 
153 0 153 153 0 153 153 0 153 
153 0 153 153 0 153 153 0 153 
153 0 153 153 0 153 153 0 153 
153 0 153 153 0 153 153 0 153 
153 0 153 153 0 153 153 0 153 
153 0 153 153 0 153 153 0 153 
153 0 153 153 0 153 153 0 153 
153 0 153 153 0 153 153 0 153 
153 0 153 153 0 153 153 0 153 
153 0 153 153 0 153 153 0 153 
153 0 153 153 0 153 153 0 153 
153 0 153 153 0 153 153 0 153 
153 0 153 153 0 153 153 0 153 
153 0 153 153 0 153 153 0 153 
153 0 153 153 0 153 153 0 153 
153 0 153 153 0 153 153 0 153 
153 0 153 153 0 153 153 0 153 
153 0 153 153 0 153 153 0 153 
153 0 153 153 0 153 153 0 153 
153 0 153 153 0 153 153 0 153 
153 0 153 153 0 153 153 0 153 
153 0 153 153 0 153 153 0 153 
153 0 153 153 0 153 153 0 153 
153 0 153 153 0 153 153 0 153 
153 0 153 153 0 153 153 0 153 
153 0 153 153 0 153 153 0 153 
153 0 153 153 0 153 153 0 153 
153 0 153 153 0 153 153 0 153 
153 0 153 153 0 153 153 0 153 
153 0 153 153 0 153 153 0 153 
153 0 153 153 0 153 153 0 153 
153 0 153 153 0 153 153 0 153 
153 0 153 153 0 153 153 0 153 
153 0 153 153 0 153 153 0 153 
153 0 153 153 0 153 153 0 153 
153 0 153 153 0 153 153 0 153 
153 0 153 153 0 153 153 0 153 
153 0 153 153 0 153 153 0 153 
153 0 153 153 0 153 153 0 153 
153 0 153 153 0 153 153 0 153 
153 0 153 153 0 153 153 0 153 
153 0 153 153 0 153 153 0 153 
153 0 153 153 0 153 153 0 153 
153 0 153 153 0 153 153 0 153 
153 0 153 153 0 153 153 0 153 
153 0 153 153 0 153 153 0 153 
153 0 153 153 0 153 153 0 153 
153 0 153 153 0 153 153 0 153 
153 0 153 153 0 153 153 0 153 
153 0 153 153 0 153 153 0 153 
153 0 153 153 0 153 153 0 153 
153 0 153 153 0 153 153 0 153 
153 0 153 153 0 153 153 0 153 
153 0 153 153 0 153 153 0 153 
153 0 153 153 0 153 153 0 153 
153 0 153 153 0 153 153 0 153 
153 0 153 153 0 153 153 0 153 
153 0 153 153 0 153 153 0 153 
153 0 153 153 0 153 153 0 153 
153 0 153 153 0 153 153 0 153 
153 0 153 153 0 153 153 0 153 
153 0 153 153 0 153 153 0 153 
153 0 153 153 0 153 153 0 153 
153 0 153 153 0 153 153 0 153 
153 0 153 153 0 153 153 0 153 
153 0 153 153 0 153 153 0 153 
153 0 153 153 0 153 153 0 153 
153 0 153 153 0 153 153 0 153 
153 0 153 153 0 153 153 0 153 
153 0 153 153 0 153 153 0 153 
153 0 153 153 0 153 153 0 153 
153 0 153 153 0 153 153 0 153 
153 0 153 153 0 153 153 0 153 
153 0 153 153 0 153 153 0 153 
153 0 153 153 0 153 153 0 153 
153 0 153 153 0 153 153 0 153 
153 0 153 153 0 153 153 0 153 
153 0 153 153 0 153 153 0 153 
153 0 153 153 0 153 153 0 153 
153 0 153 153 0 153 153 0 153 
153 0 153 153 0 153 153 0 153 
153 0 153 153 0 153 153 0 153 
153 0 153 153 0 153 153 0 153 
153 0 153 153 0 153 153 0 153 
153 0 153 153 0 153 153 0 153 
153 0 153 153 0 153 153 0 153 
153 0 153 153 0 153 153 0 153 
153 0 153 153 0 153 153 0 153 
153 0 153 153 0 153 153 0 153 
153 0 153 153 0 153 153 0 153 
153 0 153 153 0 153 153 0 153 
153 0 153 153 0 153 153 0 153 
153 0 153 153 0 153 153 0 153 
153 0 153 153 0 153 153 0 153 
153 0 153 153 0 153 153 0 153 
153 0 153 153 0 153 153 0 153 
153 0 153 153 0 153 153 0 153 
153 0 153 153 0 153 153 0 153 
153 0 153 153 0 153 153 0 153 
153 0 153 153 0 153 153 0 153 
153 0 153 153 0 153 153 0 153 
153 0 153 153 0 153 153 0 153 
153 0 153 153 0 153 153 0 153 
153 0 153 153 0 153 153 0 153 
153 0 153 153 0 153 153 0 153 
153 0 153 153 0 153 153 0 153 
153 0 153 153 0 153 153 0 153 
153 0 153 153 0 153 153 0 153 
153 0 153 153 0 153 153 0 153 
153 0 153 153 0 153 153 0 153 
153 0 153 153 0 153 153 0 153 
153 0 153 153 0 153 153 0 153 
153 0 153 153 0 153 153 0 153 
153 0 153 153 0 153 153 0 153 
153 0 153 153 0 153 153 0 153 
153 0 153 153 0 153 153 0 153 
153 0 153 153 0 153 153 0 153 
153 0 153 153 0 153 153 0 153 
153 0 153 153 0 153 153 0 153 
153 0 153 153 0 153 153 0 153 
153 0 153 153 0 153 153 0 153 
153 0 153 153 0 153 153 0 153 
153 0 153 153 0 153 153 0 153 
153 0 153 153 0 153 153 0 153 
153 0 153 153 0 153 153 0 153 
153 0 153 153 0 153 153 0 153 
153 0 153 153 0 153 153 0 153 
153 0 153 153 0 153 153 0 153 
153 0 153 153 0 153 153 0 153 
153 0 153 153 0 153 153 0 153 
153 0 153 153 0 153 153 0 153 
153 0 153 153 0 153 153 0 153 
153 0 153 153 0 153 153 0 153 
153 0 153 153 0 153 153 0 153 
153 0 153 153 0 153 153 0 153 
153 0 153 153 0 153 153 0 153 
153 0 153 153 0 153 153 0 153 
153 0 153 153 0 153 153 0 153 
153 0 153 153 0 153 153 0 153 
153 0 153 153 0 153 153 0 153 
153 0 153 153 0 153 153 0 153 
153 0 153 153 0 153 153 0 153 
153 0 153 153 0 153 153 0 153 
153 0 153 153 0 153 153 0 153 
153 0 153 153 0 153 153 0 153 
153 0 153 153 0 153 153 0 153 
153 0 153 153 0 153 153 0 153 
153 0 153 153 0 153 153 0 153 
153 0 153 153 0 153 153 0 153 
153 0 153 153 0 153 153 0 153 
153 0 153 153 0 153 153 0 153 
153 0 153 153 0 153 153 0 153 
153 0 153 153 0 153 153 0 153 
153 0 153 153 0 153 153 0 153 
153 0 153 153 0 153 153 0 153 
153 0 153 153 0 153 153 0 153 
153 0 153 153 0 153 153 0 153 
153 0 153 153 0 153 153 0 153 
153 0 153 153 0 153 153 0 153 
153 0 153 153 0 153 153 0 153 
153 0 153 153 0 153 153 0 153 
153 0 153 153 0 153 153 0 153 
153 0 153 153 0 153 153 0 153 
153 0 153 153 0 153 153 0 153 
153 0 153 153 0 153 153 0 153 
153 0 153 153 0 153 153 0 153 
153 0 153 153 0 153 153 0 153 
153 0 153 153 0 153 153 0 153 
153 0 153 153 0 153 153 0 153 
153 0 153 153 0 153 153 0 153 
153 0 153 153 0 153 153 0 153 
153 0 153 153 0 153 153 0 153 
153 0 153 153 0 153 153 0 153 
153 0 153 153 0 153 153 0 153 
153 0 153 153 0 153 153 0 153 
153 0 153 153 0 153 153 0 153 
153 0 153 153 0 153 153 0 153 
153 0 153 153 0 153 153 0 153 
153 0 153 153 0 153 153 0 153 
153 0 153 153 0 153 153 0 153 
153 0 153 153 0 153 153 0 153 
153 0 153 153 0 153 153 0 153 
153 0 153 153 0 153 153 0 153 
153 0 153 153 0 153 153 0 153 
153 0 153 153 0 153 153 0 153 
153 0 153 153 0 153 153 0 153 
153 0 153 153 0 153 153 0 153 
153 0 153 153 0 153 153 0 153 
153 0 153 153 0 153 153 0 153 
153 0 153 153 0 153 153 0 153 
153 0 153 153 0 153 153 0 153 
153 0 153 153 0 153 153 0 153 
153 0 153 153 0 153 153 0 153 
153 0 153 153 0 153 153 0 153 
153 0 153 153 0 153 153 0 153 
153 0 153 153 0 153 153 0 153 
153 0 153 153 0 153 153 0 153 
153 0 153 153 0 153 153 0 153 
153 0 153 153 0 153 153 0 153 
153 0 153 153 0 153 153 0 153 
153 0 153 153 0 153 153 0 153 
153 0 153 153 0 153 153 0 153 
153 0 153 153 0 153 153 0 153 
153 0 153 153 0 153 153 0 153 
153 0 153 153 0 153 153 0 153 
153 0 153 153 0 153 153 0 153 
153 0 153 153 0 153 153 0 153 
153 0 153 153 0 153 153 0 153 
153 0 153 153 0 153 153 0 153 
153 0 153 153 0 153 153 0 153 
153 0 153 153 0 153 153 0 153 
153 0 153 153 0 153 153 0 153 
153 0 153 153 0 153 153 0 153 
153 0 153 153 0 153 153 0 153 
153 0 153 153 0 153 153 0 153 
153 0 153 153 0 153 153 0 153 
153 0 153 153 0 153 153 0 153 
153 0 153 153 0 153 153 0 153 
153 0 153 153 0 153 153 0 153 
153 0 153 153 0 153 153 0 153 
153 0 153 153 0 153 153 0 153 
153 0 153 153 0 153 153 0 153 
153 0 153 153 0 153 153 0 153 
153 0 153 153 0 153 153 0 153 
153 0 153 153 0 153 153 0 153 
153 0 153 153 0 153 153 0 153 
153 0 153 153 0 153 153 0 153 
153 0 153 153 0 153 153 0 153 
153 0 153 153 0 153 153 0 153 
153 0 153 153 0 153 153 0 153 
153 0 153 153 0 153 153 0 153 
153 0 153 153 0 153 153 0 153 
153 0 153 153 0 153 153 0 153 
153 0 153 153 0 153 153 0 153 
153 0 153 153 0 153 153 0 153 
153 0 153 153 0 153 153 0 153 
153 0 153 153 0 153 153 0 153 
153 0 153 153 0 153 153 0 153 
153 0 153 153 0 153 153 0 153 
153 0 153 153 0 153 153 0 153 
153 0 153 153 0 153 153 0 153 
153 0 153 153 0 153 153 0 153 
153 0 153 153 0 153 153 0 153 
153 0 153 153 0 153 153 0 153 
153 0 153 153 0 153 153 0 153 
153 0 153 153 0 153 153 0 153 
153 0 153 153 0 153 153 0 153 
153 0 153 153 0 153 153 0 153 
153 0 153 153 0 153 153 0 153 
153 0 153 153 0 153 153 0 153 
153 0 153 153 0 153 153 0 153 
153 0 153 153 0 153 153 0 153 
153 0 153 153 0 153 153 0 153 
153 0 153 153 0 153 153 0 153 
153 0 153 153 0 153 153 0 153 
153 0 153 153 0 153 153 0 153 
153 0 153 153 0 153 153 0 153 
153 0 153 153 0 153 153 0 153 
153 0 153 153 0 153 153 0 153 
153 0 153 153 0 153 153 0 153 
153 0 153 153 0 153 153 0 153 
153 0 153 153 0 153 153 0 153 
153 0 153 153 0 153 153 0 153 
153 0 153 153 0 153 153 0 153 
153 0 153 153 0 153 153 0 153 
153 0 153 153 0 153 153 0 153 
153 0 153 153 0 153 153 0 153 
153 0 153 153 0 153 153 0 153 
153 0 153 153 0 153 153 0 153 
153 0 153 153 0 153 153 0 153 
153 0 153 153 0 153 153 0 153 
153 0 153 153 0 153 153 0 153 