# vtk DataFile Version 3.0
vtk output
ASCII
DATASET POLYDATA
POINTS 3000 float
560 304 0 560.188 303.994 0 560.376 303.976 0 
560.562 303.947 0 560.746 303.906 0 560.927 303.853 0 
561.104 303.789 0 561.277 303.714 0 561.445 303.629 0 
561.607 303.533 0 561.763 303.427 0 561.912 303.312 0 
562.054 303.187 0 562.187 303.054 0 562.312 302.912 0 
562.427 302.763 0 562.533 302.607 0 562.629 302.445 0 
562.714 302.277 0 562.789 302.104 0 562.853 301.927 0 
562.906 301.746 0 562.947 301.562 0 562.976 301.376 0 
562.994 301.188 0 563 301 0 562.994 300.812 0 
562.976 300.624 0 562.947 300.438 0 562.906 300.254 0 
562.853 300.073 0 562.789 299.896 0 562.714 299.723 0 
562.629 299.555 0 562.533 299.393 0 562.427 299.237 0 
562.312 299.088 0 562.187 298.946 0 562.054 298.813 0 
561.912 298.688 0 561.763 298.573 0 561.607 298.467 0 
561.445 298.371 0 561.277 298.286 0 561.104 298.211 0 
560.927 298.147 0 560.746 298.094 0 560.562 298.053 0 
560.376 298.024 0 560.188 298.006 0 560 298 0 
559.812 298.006 0 559.624 298.024 0 559.438 298.053 0 
559.254 298.094 0 559.073 298.147 0 558.896 298.211 0 
558.723 298.286 0 558.555 298.371 0 558.393 298.467 0 
558.237 298.573 0 558.088 298.688 0 557.946 298.813 0 
557.813 298.946 0 557.688 299.088 0 557.573 299.237 0 
557.467 299.393 0 557.371 299.555 0 557.286 299.723 0 
557.211 299.896 0 557.147 300.073 0 557.094 300.254 0 
557.053 300.438 0 557.024 300.624 0 557.006 300.812 0 
557 301 0 557.006 301.188 0 557.024 301.376 0 
557.053 301.562 0 557.094 301.746 0 557.147 301.927 0 
557.211 302.104 0 557.286 302.277 0 557.371 302.445 0 
557.467 302.607 0 557.573 302.763 0 557.688 302.912 0 
557.813 303.054 0 557.946 303.187 0 558.088 303.312 0 
558.237 303.427 0 558.393 303.533 0 558.555 303.629 0 
558.723 303.714 0 558.896 303.789 0 559.073 303.853 0 
559.254 303.906 0 559.438 303.947 0 559.624 303.976 0 
559.812 303.994 0 560 295.8 0 560.188 295.794 0 
560.376 295.776 0 560.562 295.747 0 560.746 295.706 0 
560.927 295.653 0 561.104 295.589 0 561.277 295.514 0 
561.445 295.429 0 561.607 295.333 0 561.763 295.227 0 
561.912 295.112 0 562.054 294.987 0 562.187 294.854 0 
562.312 294.712 0 562.427 294.563 0 562.533 294.407 0 
562.629 294.245 0 562.714 294.077 0 562.789 293.904 0 
562.853 293.727 0 562.906 293.546 0 562.947 293.362 0 
562.976 293.176 0 562.994 292.988 0 563 292.8 0 
562.994 292.612 0 562.976 292.424 0 562.947 292.238 0 
562.906 292.054 0 562.853 291.873 0 562.789 291.696 0 
562.714 291.523 0 562.629 291.355 0 562.533 291.193 0 
562.427 291.037 0 562.312 290.888 0 562.187 290.746 0 
562.054 290.613 0 561.912 290.488 0 561.763 290.373 0 
561.607 290.267 0 561.445 290.171 0 561.277 290.086 0 
561.104 290.011 0 560.927 289.947 0 560.746 289.894 0 
560.562 289.853 0 560.376 289.824 0 560.188 289.806 0 
560 289.8 0 559.812 289.806 0 559.624 289.824 0 
559.438 289.853 0 559.254 289.894 0 559.073 289.947 0 
558.896 290.011 0 558.723 290.086 0 558.555 290.171 0 
558.393 290.267 0 558.237 290.373 0 558.088 290.488 0 
557.946 290.613 0 557.813 290.746 0 557.688 290.888 0 
557.573 291.037 0 557.467 291.193 0 557.371 291.355 0 
557.286 291.523 0 557.211 291.696 0 557.147 291.873 0 
557.094 292.054 0 557.053 292.238 0 557.024 292.424 0 
557.006 292.612 0 557 292.8 0 557.006 292.988 0 
557.024 293.176 0 557.053 293.362 0 557.094 293.546 0 
557.147 293.727 0 557.211 293.904 0 557.286 294.077 0 
557.371 294.245 0 557.467 294.407 0 557.573 294.563 0 
557.688 294.712 0 557.813 294.854 0 557.946 294.987 0 
558.088 295.112 0 558.237 295.227 0 558.393 295.333 0 
558.555 295.429 0 558.723 295.514 0 558.896 295.589 0 
559.073 295.653 0 559.254 295.706 0 559.438 295.747 0 
559.624 295.776 0 559.812 295.794 0 277 265 0 
277.188 264.994 0 277.376 264.976 0 277.562 264.947 0 
277.746 264.906 0 277.927 264.853 0 278.104 264.789 0 
278.277 264.714 0 278.445 264.629 0 278.607 264.533 0 
278.763 264.427 0 278.912 264.312 0 279.054 264.187 0 
279.187 264.054 0 279.312 263.912 0 279.427 263.763 0 
279.533 263.607 0 279.629 263.445 0 279.714 263.277 0 
279.789 263.104 0 279.853 262.927 0 279.906 262.746 0 
279.947 262.562 0 279.976 262.376 0 279.994 262.188 0 
280 262 0 279.994 261.812 0 279.976 261.624 0 
279.947 261.438 0 279.906 261.254 0 279.853 261.073 0 
279.789 260.896 0 279.714 260.723 0 279.629 260.555 0 
279.533 260.393 0 279.427 260.237 0 279.312 260.088 0 
279.187 259.946 0 279.054 259.813 0 278.912 259.688 0 
278.763 259.573 0 278.607 259.467 0 278.445 259.371 0 
278.277 259.286 0 278.104 259.211 0 277.927 259.147 0 
277.746 259.094 0 277.562 259.053 0 277.376 259.024 0 
277.188 259.006 0 277 259 0 276.812 259.006 0 
276.624 259.024 0 276.438 259.053 0 276.254 259.094 0 
276.073 259.147 0 275.896 259.211 0 275.723 259.286 0 
275.555 259.371 0 275.393 259.467 0 275.237 259.573 0 
275.088 259.688 0 274.946 259.813 0 274.813 259.946 0 
274.688 260.088 0 274.573 260.237 0 274.467 260.393 0 
274.371 260.555 0 274.286 260.723 0 274.211 260.896 0 
274.147 261.073 0 274.094 261.254 0 274.053 261.438 0 
274.024 261.624 0 274.006 261.812 0 274 262 0 
274.006 262.188 0 274.024 262.376 0 274.053 262.562 0 
274.094 262.746 0 274.147 262.927 0 274.211 263.104 0 
274.286 263.277 0 274.371 263.445 0 274.467 263.607 0 
274.573 263.763 0 274.688 263.912 0 274.813 264.054 0 
274.946 264.187 0 275.088 264.312 0 275.237 264.427 0 
275.393 264.533 0 275.555 264.629 0 275.723 264.714 0 
275.896 264.789 0 276.073 264.853 0 276.254 264.906 0 
276.438 264.947 0 276.624 264.976 0 276.812 264.994 0 
160 259 0 160.188 258.994 0 160.376 258.976 0 
160.562 258.947 0 160.746 258.906 0 160.927 258.853 0 
161.104 258.789 0 161.277 258.714 0 161.445 258.629 0 
161.607 258.533 0 161.763 258.427 0 161.912 258.312 0 
162.054 258.187 0 162.187 258.054 0 162.312 257.912 0 
162.427 257.763 0 162.533 257.607 0 162.629 257.445 0 
162.714 257.277 0 162.789 257.104 0 162.853 256.927 0 
162.906 256.746 0 162.947 256.562 0 162.976 256.376 0 
162.994 256.188 0 163 256 0 162.994 255.812 0 
162.976 255.624 0 162.947 255.438 0 162.906 255.254 0 
162.853 255.073 0 162.789 254.896 0 162.714 254.723 0 
162.629 254.555 0 162.533 254.393 0 162.427 254.237 0 
162.312 254.088 0 162.187 253.946 0 162.054 253.813 0 
161.912 253.688 0 161.763 253.573 0 161.607 253.467 0 
161.445 253.371 0 161.277 253.286 0 161.104 253.211 0 
160.927 253.147 0 160.746 253.094 0 160.562 253.053 0 
160.376 253.024 0 160.188 253.006 0 160 253 0 
159.812 253.006 0 159.624 253.024 0 159.438 253.053 0 
159.254 253.094 0 159.073 253.147 0 158.896 253.211 0 
158.723 253.286 0 158.555 253.371 0 158.393 253.467 0 
158.237 253.573 0 158.088 253.688 0 157.946 253.813 0 
157.813 253.946 0 157.688 254.088 0 157.573 254.237 0 
157.467 254.393 0 157.371 254.555 0 157.286 254.723 0 
157.211 254.896 0 157.147 255.073 0 157.094 255.254 0 
157.053 255.438 0 157.024 255.624 0 157.006 255.812 0 
157 256 0 157.006 256.188 0 157.024 256.376 0 
157.053 256.562 0 157.094 256.746 0 157.147 256.927 0 
157.211 257.104 0 157.286 257.277 0 157.371 257.445 0 
157.467 257.607 0 157.573 257.763 0 157.688 257.912 0 
157.813 258.054 0 157.946 258.187 0 158.088 258.312 0 
158.237 258.427 0 158.393 258.533 0 158.555 258.629 0 
158.723 258.714 0 158.896 258.789 0 159.073 258.853 0 
159.254 258.906 0 159.438 258.947 0 159.624 258.976 0 
159.812 258.994 0 170 264 0 170.188 263.994 0 
170.376 263.976 0 170.562 263.947 0 170.746 263.906 0 
170.927 263.853 0 171.104 263.789 0 171.277 263.714 0 
171.445 263.629 0 171.607 263.533 0 171.763 263.427 0 
171.912 263.312 0 172.054 263.187 0 172.187 263.054 0 
172.312 262.912 0 172.427 262.763 0 172.533 262.607 0 
172.629 262.445 0 172.714 262.277 0 172.789 262.104 0 
172.853 261.927 0 172.906 261.746 0 172.947 261.562 0 
172.976 261.376 0 172.994 261.188 0 173 261 0 
172.994 260.812 0 172.976 260.624 0 172.947 260.438 0 
172.906 260.254 0 172.853 260.073 0 172.789 259.896 0 
172.714 259.723 0 172.629 259.555 0 172.533 259.393 0 
172.427 259.237 0 172.312 259.088 0 172.187 258.946 0 
172.054 258.813 0 171.912 258.688 0 171.763 258.573 0 
171.607 258.467 0 171.445 258.371 0 171.277 258.286 0 
171.104 258.211 0 170.927 258.147 0 170.746 258.094 0 
170.562 258.053 0 170.376 258.024 0 170.188 258.006 0 
170 258 0 169.812 258.006 0 169.624 258.024 0 
169.438 258.053 0 169.254 258.094 0 169.073 258.147 0 
168.896 258.211 0 168.723 258.286 0 168.555 258.371 0 
168.393 258.467 0 168.237 258.573 0 168.088 258.688 0 
167.946 258.813 0 167.813 258.946 0 167.688 259.088 0 
167.573 259.237 0 167.467 259.393 0 167.371 259.555 0 
167.286 259.723 0 167.211 259.896 0 167.147 260.073 0 
167.094 260.254 0 167.053 260.438 0 167.024 260.624 0 
167.006 260.812 0 167 261 0 167.006 261.188 0 
167.024 261.376 0 167.053 261.562 0 167.094 261.746 0 
167.147 261.927 0 167.211 262.104 0 167.286 262.277 0 
167.371 262.445 0 167.467 262.607 0 167.573 262.763 0 
167.688 262.912 0 167.813 263.054 0 167.946 263.187 0 
168.088 263.312 0 168.237 263.427 0 168.393 263.533 0 
168.555 263.629 0 168.723 263.714 0 168.896 263.789 0 
169.073 263.853 0 169.254 263.906 0 169.438 263.947 0 
169.624 263.976 0 169.812 263.994 0 264 184 0 
264.188 183.994 0 264.376 183.976 0 264.562 183.947 0 
264.746 183.906 0 264.927 183.853 0 265.104 183.789 0 
265.277 183.714 0 265.445 183.629 0 265.607 183.533 0 
265.763 183.427 0 265.912 183.312 0 266.054 183.187 0 
266.187 183.054 0 266.312 182.912 0 266.427 182.763 0 
266.533 182.607 0 266.629 182.445 0 266.714 182.277 0 
266.789 182.104 0 266.853 181.927 0 266.906 181.746 0 
266.947 181.562 0 266.976 181.376 0 266.994 181.188 0 
267 181 0 266.994 180.812 0 266.976 180.624 0 
266.947 180.438 0 266.906 180.254 0 266.853 180.073 0 
266.789 179.896 0 266.714 179.723 0 266.629 179.555 0 
266.533 179.393 0 266.427 179.237 0 266.312 179.088 0 
266.187 178.946 0 266.054 178.813 0 265.912 178.688 0 
265.763 178.573 0 265.607 178.467 0 265.445 178.371 0 
265.277 178.286 0 265.104 178.211 0 264.927 178.147 0 
264.746 178.094 0 264.562 178.053 0 264.376 178.024 0 
[...]
POINT_DATA 3000
SCALARS scales float
LOOKUP_TABLE default
6 6 6 6 6 6 6 6 6 
6 6 6 6 6 6 6 6 6 
6 6 6 6 6 6 6 6 6 
6 6 6 6 6 6 6 6 6 
6 6 6 6 6 6 6 6 6 
6 6 6 6 6 6 6 6 6 
6 6 6 6 6 6 6 6 6 
6 6 6 6 6 6 6 6 6 
6 6 6 6 6 6 6 6 6 
6 6 6 6 6 6 6 6 6 
6 6 6 6 6 6 6 6 6 
6 6 6 6 6 6 6 6 6 
6 6 6 6 6 6 6 6 6 
6 6 6 6 6 6 6 6 6 
6 6 6 6 6 6 6 6 6 
6 6 6 6 6 6 6 6 6 
6 6 6 6 6 6 6 6 6 
6 6 6 6 6 6 6 6 6 
6 6 6 6 6 6 6 6 6 
6 6 6 6 6 6 6 6 6 
6 6 6 6 6 6 6 6 6 
6 6 6 6 6 6 6 6 6 
6 6 6 6 6 6 6 6 6 
6 6 6 6 6 6 6 6 6 
6 6 6 6 6 6 6 6 6 
6 6 6 6 6 6 6 6 6 
6 6 6 6 6 6 6 6 6 
6 6 6 6 6 6 6 6 6 
6 6 6 6 6 6 6 6 6 
6 6 6 6 6 6 6 6 6 
6 6 6 6 6 6 6 6 6 
6 6 6 6 6 6 6 6 6 
6 6 6 6 6 6 6 6 6 
6 6 6 6 6 6 6 6 6 
6 6 6 6 6 6 6 6 6 
6 6 6 6 6 6 6 6 6 
6 6 6 6 6 6 6 6 6 
6 6 6 6 6 6 6 6 6 
6 6 6 6 6 6 6 6 6 
6 6 6 6 6 6 6 6 6 
6 6 6 6 6 6 6 6 6 
6 6 6 6 6 6 6 6 6 
6 6 6 6 6 6 6 6 6 
6 6 6 6 6 6 6 6 6 
6 6 6 6 6 6 6 6 6 
6 6 6 6 6 6 6 6 6 
6 6 6 6 6 6 6 6 6 
6 6 6 6 6 6 6 6 6 
6 6 6 6 6 6 6 6 6 
6 6 6 6 6 6 6 6 6 
6 6 6 6 6 6 6 6 6 
6 6 6 6 6 6 6 6 6 
6 6 6 6 6 6 6 6 6 
6 6 6 6 6 6 6 6 6 
6 6 6 6 6 6 6 6 6 
6 6 6 6 6 6 6 6 6 
6 6 6 6 6 6 6 6 6 
6 6 6 6 6 6 6 6 6 
6 6 6 6 6 6 6 6 6 
6 6 6 6 6 6 6 6 6 
6 6 6 6 6 6 6 6 6 
6 6 6 6 6 6 6 6 6 
6 6 6 6 6 6 6 6 6 
6 6 6 6 6 6 6 6 6 
6 6 6 6 6 6 6 6 6 
6 6 6 6 6 6 6 6 6 
6 6 6 6 6 6 6 6 6 
6 6 6 6 6 6 6 6 6 
6 6 6 6 6 6 6 6 6 
6 6 6 6 6 6 6 6 6 
6 6 6 6 6 6 6 6 6 
6 6 6 6 6 6 6 6 6 
6 6 6 6 6 6 6 6 6 
6 6 6 6 6 6 6 6 6 
6 6 6 6 6 6 6 6 6 
6 6 6 6 6 6 6 6 6 
6 6 6 6 6 6 6 6 6 
6 6 6 6 6 6 6 6 6 
6 6 6 6 6 6 6 6 6 
6 6 6 6 6 6 6 6 6 
6 6 6 6 6 6 6 6 6 
6 6 6 6 6 6 6 6 6 
6 6 6 6 6 6 6 6 6 
6 6 6 6 6 6 6 6 6 
6 6 6 6 6 6 6 6 6 
6 6 6 6 6 6 6 6 6 
6 6 6 6 6 6 6 6 6 
6 6 6 6 6 6 6 6 6 
6 6 6 6 6 6 6 6 6 
6 6 6 6 6 6 6 6 6 
6 6 6 6 6 6 6 6 6 
6 6 6 6 6 6 6 6 6 
6 6 6 6 6 6 6 6 6 
6 6 6 6 6 6 6 6 6 
6 6 6 6 6 6 6 6 6 
6 6 6 6 6 6 6 6 6 
6 6 6 6 6 6 6 6 6 
6 6 6 6 6 6 6 6 6 
6 6 6 6 6 6 6 6 6 
6 6 6 6 6 6 6 6 6 
6 6 6 6 6 6 6 6 6 
6 6 6 6 6 6 6 6 6 
6 6 6 6 6 6 6 6 6 
6 6 6 6 6 6 6 6 6 
6 6 6 6 6 6 6 6 6 
6 6 6 6 6 6 6 6 6 
6 6 6 6 6 6 6 6 6 
6 6 6 6 6 6 6 6 6 
6 6 6 6 6 6 6 6 6 
6 6 6 6 6 6 6 6 6 
6 6 6 6 6 6 6 6 6 
6 6 6 6 6 6 6 6 6 
6 6 6 6 6 6 6 6 6 
6 6 6 6 6 6 6 6 6 
6 6 6 6 6 6 6 6 6 
6 6 6 6 6 6 6 6 6 
6 6 6 6 6 6 6 6 6 
6 6 6 6 6 6 6 6 6 
6 6 6 6 6 6 6 6 6 
6 6 6 6 6 6 6 6 6 
6 6 6 6 6 6 6 6 6 
6 6 6 6 6 6 6 6 6 
6 6 6 6 6 6 6 6 6 
6 6 6 6 6 6 6 6 6 
6 6 6 6 6 6 6 6 6 
6 6 6 6 6 6 6 6 6 
6 6 6 6 6 6 6 6 6 
6 6 6 6 6 6 6 6 6 
6 6 6 6 6 6 6 6 6 
6 6 6 6 6 6 6 6 6 
6 6 6 6 6 6 6 6 6 
6 6 6 6 6 6 6 6 6 
6 6 6 6 6 6 6 6 6 
6 6 6 6 6 6 6 6 6 
6 6 6 6 6 6 6 6 6 
6 6 6 6 6 6 6 6 6 
6 6 6 6 6 6 6 6 6 
6 6 6 6 6 6 6 6 6 
6 6 6 6 6 6 6 6 6 
6 6 6 6 6 6 6 6 6 
6 6 6 6 6 6 6 6 6 
6 6 6 6 6 6 6 6 6 
6 6 6 6 6 6 6 6 6 
6 6 6 6 6 6 6 6 6 
6 6 6 6 6 6 6 6 6 
6 6 6 6 6 6 6 6 6 
6 6 6 6 6 6 6 6 6 
6 6 6 6 6 6 6 6 6 
6 6 6 6 6 6 6 6 6 
6 6 6 6 6 6 6 6 6 
6 6 6 6 6 6 6 6 6 
6 6 6 6 6 6 6 6 6 
6 6 6 6 6 6 6 6 6 
6 6 6 6 6 6 6 6 6 
6 6 6 6 6 6 6 6 6 
6 6 6 6 6 6 6 6 6 
6 6 6 6 6 6 6 6 6 
6 6 6 6 6 6 6 6 6 
6 6 6 6 6 6 6 6 6 
6 6 6 6 6 6 6 6 6 
6 6 6 6 6 6 6 6 6 
6 6 6 6 6 6 6 6 6 
6 6 6 6 6 6 6 6 6 
6 6 6 6 6 6 6 6 6 
6 6 6 6 6 6 6 6 6 
6 6 6 6 6 6 6 6 6 
6 6 6 6 6 6 6 6 6 
6 6 6 6 6 6 6 6 6 
6 6 6 6 6 6 6 6 6 
6 6 6 6 6 6 6 6 6 
6 6 6 6 6 6 6 6 6 
6 6 6 6 6 6 6 6 6 
6 6 6 6 6 6 6 6 6 
6 6 6 6 6 6 6 6 6 
6 6 6 6 6 6 6 6 6 
6 6 6 6 6 6 6 6 6 
6 6 6 6 6 6 6 6 6 
6 6 6 6 6 6 6 6 6 
6 6 6 6 6 6 6 6 6 
6 6 6 6 6 6 6 6 6 
6 6 6 6 6 6 6 6 6 
6 6 6 6 6 6 6 6 6 
6 6 6 6 6 6 6 6 6 
6 6 6 6 6 6 6 6 6 
6 6 6 6 6 6 6 6 6 
6 6 6 6 6 6 6 6 6 
6 6 6 6 6 6 6 6 6 
6 6 6 6 6 6 6 6 6 
6 6 6 6 6 6 6 6 6 
6 6 6 6 6 6 6 6 6 
6 6 6 6 6 6 6 6 6 
6 6 6 6 6 6 6 6 6 
6 6 6 6 6 6 6 6 6 
6 6 6 6 6 6 6 6 6 
6 6 6 6 6 6 6 6 6 
6 6 6 6 6 6 6 6 6 
6 6 6 6 6 6 6 6 6 
6 6 6 6 6 6 6 6 6 
6 6 6 6 6 6 6 6 6 
6 6 6 6 6 6 6 6 6 
6 6 6 6 6 6 6 6 6 
6 6 6 6 6 6 6 6 6 
6 6 6 6 6 6 6 6 6 
6 6 6 6 6 6 6 6 6 
6 6 6 6 6 6 6 6 6 
6 6 6 6 6 6 6 6 6 
6 6 6 6 6 6 6 6 6 
6 6 6 6 6 6 6 6 6 
6 6 6 6 6 6 6 6 6 
6 6 6 6 6 6 6 6 6 
6 6 6 6 6 6 6 6 6 
6 6 6 6 6 6 6 6 6 
6 6 6 6 6 6 6 6 6 
6 6 6 6 6 6 6 6 6 
6 6 6 6 6 6 6 6 6 
6 6 6 6 6 6 6 6 6 
6 6 6 6 6 6 6 6 6 
6 6 6 6 6 6 6 6 6 
6 6 6 6 6 6 6 6 6 
6 6 6 6 6 6 6 6 6 
6 6 6 6 6 6 6 6 6 
6 6 6 6 6 6 6 6 6 
6 6 6 6 6 6 6 6 6 
6 6 6 6 6 6 6 6 6 
6 6 6 6 6 6 6 6 6 
6 6 6 6 6 6 6 6 6 
6 6 6 6 6 6 6 6 6 
6 6 6 6 6 6 6 6 6 
6 6 6 6 6 6 6 6 6 
6 6 6 6 6 6 6 6 6 
6 6 6 6 6 6 6 6 6 
6 6 6 6 6 6 6 6 6 
6 6 6 6 6 6 6 6 6 
6 6 6 6 6 6 6 6 6 
6 6 6 6 6 6 6 6 6 
6 6 6 6 6 6 6 6 6 
6 6 6 6 6 6 6 6 6 
6 6 6 6 6 6 6 6 6 
6 6 6 6 6 6 6 6 6 
6 6 6 6 6 6 6 6 6 
6 6 6 6 6 6 6 6 6 
6 6 6 6 6 6 6 6 6 
6 6 6 6 6 6 6 6 6 
6 6 6 6 6 6 6 6 6 
6 6 6 6 6 6 6 6 6 
6 6 6 6 6 6 6 6 6 
6 6 6 6 6 6 6 6 6 
6 6 6 6 6 6 6 6 6 
6 6 6 6 6 6 6 6 6 
6 6 6 6 6 6 6 6 6 
6 6 6 6 6 6 6 6 6 
6 6 6 6 6 6 6 6 6 
6 6 6 6 6 6 6 6 6 
6 6 6 6 6 6 6 6 6 
6 6 6 6 6 6 6 6 6 
6 6 6 6 6 6 6 6 6 
6 6 6 6 6 6 6 6 6 
6 6 6 6 6 6 6 6 6 
6 6 6 6 6 6 6 6 6 
6 6 6 6 6 6 6 6 6 
6 6 6 6 6 6 6 6 6 
6 6 6 6 6 6 6 6 6 
6 6 6 6 6 6 6 6 6 
6 6 6 6 6 6 6 6 6 
6 6 6 6 6 6 6 6 6 
6 6 6 6 6 6 6 6 6 
6 6 6 6 6 6 6 6 6 
6 6 6 6 6 6 6 6 6 
6 6 6 6 6 6 6 6 6 
6 6 6 6 6 6 6 6 6 
6 6 6 6 6 6 6 6 6 
6 6 6 6 6 6 6 6 6 
6 6 6 6 6 6 6 6 6 
6 6 6 6 6 6 6 6 6 
6 6 6 6 6 6 6 6 6 
6 6 6 6 6 6 6 6 6 
6 6 6 6 6 6 6 6 6 
6 6 6 6 6 6 6 6 6 
6 6 6 6 6 6 6 6 6 
6 6 6 6 6 6 6 6 6 
6 6 6 6 6 6 6 6 6 
6 6 6 6 6 6 6 6 6 
6 6 6 6 6 6 6 6 6 
6 6 6 6 6 6 6 6 6 
6 6 6 6 6 6 6 6 6 
6 6 6 6 6 6 6 6 6 
6 6 6 6 6 6 6 6 6 
6 6 6 6 6 6 6 6 6 
6 6 6 6 6 6 6 6 6 
6 6 6 6 6 6 6 6 6 
6 6 6 6 6 6 6 6 6 
6 6 6 6 6 6 6 6 6 
6 6 6 6 6 6 6 6 6 
6 6 6 6 6 6 6 6 6 
6 6 6 6 6 6 6 6 6 
6 6 6 6 6 6 6 6 6 
6 6 6 6 6 6 6 6 6 
6 6 6 6 6 6 6 6 6 
6 6 6 6 6 6 6 6 6 
6 6 6 6 6 6 6 6 6 
6 6 6 6 6 6 6 6 6 
6 6 6 6 6 6 6 6 6 
6 6 6 6 6 6 6 6 6 
6 6 6 6 6 6 6 6 6 
6 6 6 6 6 6 6 6 6 
6 6 6 6 6 6 6 6 6 
6 6 6 6 6 6 6 6 6 
6 6 6 6 6 6 6 6 6 
6 6 6 6 6 6 6 6 6 
6 6 6 6 6 6 6 6 6 
6 6 6 6 6 6 6 6 6 
6 6 6 6 6 6 6 6 6 
6 6 6 6 6 6 6 6 6 
6 6 6 6 6 6 6 6 6 
6 6 6 6 6 6 6 6 6 
6 6 6 6 6 6 6 6 6 
6 6 6 6 6 6 6 6 6 
6 6 6 6 6 6 6 6 6 
6 6 6 6 6 6 6 6 6 
6 6 6 6 6 6 6 6 6 
6 6 6 6 6 6 6 6 6 
6 6 6 6 6 6 6 6 6 
6 6 6 6 6 6 6 6 6 
6 6 6 6 6 6 6 6 6 
6 6 6 6 6 6 6 6 6 
6 6 6 6 6 6 6 6 6 
6 6 6 6 6 6 6 6 6 
6 6 6 6 6 6 6 6 6 
6 6 6 6 6 6 6 6 6 
6 6 6 6 6 6 6 6 6 
6 6 6 6 6 6 6 6 6 
6 6 6 6 6 6 6 6 6 
6 6 6 6 6 6 6 6 6 
6 6 6 
FIELD FieldData 1
Colors 3 3000 unsigned_char
153 0 153 153 0 153 153 0 153 
153 0 153 153 0 153 153 0 153 
153 0 153 153 0 153 153 0 153 
153 0 153 153 0 153 153 0 153 
153 0 153 153 0 153 153 0 153 
153 0 153 153 0 153 153 0 153 
153 0 153 153 0 153 153 0 153 
153 0 153 153 0 153 153 0 153 
153 0 153 153 0 153 153 0 153 
153 0 153 153 0 153 153 0 153 
153 0 153 153 0 153 153 0 153 
153 0 153 153 0 153 153 0 153 
153 0 153 153 0 153 153 0 153 
153 0 153 153 0 153 153 0 153 
153 0 153 153 0 153 153 0 153 
153 0 153 153 0 153 153 0 153 
153 0 153 153 0 153 153 0 153 
153 0 153 153 0 153 153 0 153 
153 0 153 153 0 153 153 0 153 
153 0 153 153 0 153 153 0 153 
153 0 153 153 0 153 153 0 153 
153 0 153 153 0 153 153 0 153 
153 0 153 153 0 153 153 0 153 
153 0 153 153 0 153 153 0 153 
153 0 153 153 0 153 153 0 153 
153 0 153 153 0 153 153 0 153 
153 0 153 153 0 153 153 0 153 
153 0 153 153 0 153 153 0 153 
153 0 153 153 0 153 153 0 153 
153 0 153 153 0 153 153 0 153 
153 0 153 153 0 153 153 0 153 
153 0 153 153 0 153 153 0 153 
153 0 153 153 0 153 153 0 153 
153 0 153 153 0 153 153 0 153 
153 0 153 153 0 153 153 0 153 
153 0 153 153 0 153 153 0 153 
153 0 153 153 0 153 153 0 153 
153 0 153 153 0 153 153 0 153 
153 0 153 153 0 153 153 0 153 
153 0 153 153 0 153 153 0 153 
153 0 153 153 0 153 153 0 153 
153 0 153 153 0 153 153 0 153 
153 0 153 153 0 153 153 0 153 
153 0 153 153 0 153 153 0 153 
153 0 153 153 0 153 153 0 153 
153 0 153 153 0 153 153 0 153 
153 0 153 153 0 153 153 0 153 
153 0 153 153 0 153 153 0 153 
153 0 153 153 0 153 153 0 153 
153 0 153 153 0 153 153 0 153 
153 0 153 153 0 153 153 0 153 
153 0 153 153 0 153 153 0 153 
153 0 153 153 0 153 153 0 153 
153 0 153 153 0 153 153 0 153 
153 0 153 153 0 153 153 0 153 
153 0 153 153 0 153 153 0 153 
153 0 153 153 0 153 153 0 153 
153 0 153 153 0 153 153 0 153 
153 0 153 153 0 153 153 0 153 
153 0 153 153 0 153 153 0 153 
153 0 153 153 0 153 153 0 153 
153 0 153 153 0 153 153 0 153 
153 0 153 153 0 153 153 0 153 
153 0 153 153 0 153 153 0 153 
153 0 153 153 0 153 153 0 153 
153 0 153 153 0 153 153 0 153 
153 0 153 153 0 153 153 0 153 
153 0 153 153 0 153 153 0 153 
153 0 153 153 0 153 153 0 153 
153 0 153 153 0 153 153 0 153 
153 0 153 153 0 153 153 0 153 
153 0 153 153 0 153 153 0 153 
153 0 153 153 0 153 153 0 153 
153 0 153 153 0 153 153 0 153 
153 0 153 153 0 153 153 0 153 
153 0 153 153 0 153 153 0 153 
153 0 153 153 0 153 153 0 153 
153 0 153 153 0 153 153 0 153 
153 0 153 153 0 153 153 0 153 
153 0 153 153 0 153 153 0 153 
153 0 153 153 0 153 153 0 153 
153 0 153 153 0 153 153 0 153 
153 0 153 153 0 153 153 0 153 
153 0 153 153 0 153 153 0 153 
153 0 153 153 0 153 153 0 153 
153 0 153 153 0 153 153 0 153 
153 0 153 153 0 153 153 0 153 
153 0 153 153 0 153 153 0 153 
153 0 153 153 0 153 153 0 153 
153 0 153 153 0 153 153 0 153 
153 0 153 153 0 153 153 0 153 
153 0 153 153 0 153 153 0 153 
153 0 153 153 0 153 153 0 153 
153 0 153 153 0 153 153 0 153 
153 0 153 153 0 153 153 0 153 
153 0 153 153 0 153 153 0 153 
153 0 153 153 0 153 153 0 153 
153 0 153 153 0 153 153 0 153 
153 0 153 153 0 153 153 0 153 
153 0 153 153 0 153 153 0 153 
153 0 153 153 0 153 153 0 153 
153 0 153 153 0 153 153 0 153 
153 0 153 153 0 153 153 0 153 
153 0 153 153 0 153 153 0 153 
153 0 153 153 0 153 153 0 153 
153 0 153 153 0 153 153 0 153 
153 0 153 153 0 153 153 0 153 
153 0 153 153 0 153 153 0 153 
153 0 153 153 0 153 153 0 153 
153 0 153 153 0 153 153 0 153 
153 0 153 153 0 153 153 0 153 
153 0 153 153 0 153 153 0 153 
153 0 153 153 0 153 153 0 153 
153 0 153 153 0 153 153 0 153 
153 0 153 153 0 153 153 0 153 
153 0 153 153 0 153 153 0 153 
153 0 153 153 0 153 153 0 153 
153 0 153 153 0 153 153 0 153 
153 0 153 153 0 153 153 0 153 
153 0 153 153 0 153 153 0 153 
153 0 153 153 0 153 153 0 153 
153 0 153 153 0 153 153 0 153 
153 0 153 153 0 153 153 0 153 
153 0 153 153 0 153 153 0 153 
153 0 153 153 0 153 153 0 153 
153 0 153 153 0 153 153 0 153 
153 0 153 153 0 153 153 0 153 
153 0 153 153 0 153 153 0 153 
153 0 153 153 0 153 153 0 153 
153 0 153 153 0 153 153 0 153 
153 0 153 153 0 153 153 0 153 
153 0 153 153 0 153 153 0 153 
153 0 153 153 0 153 153 0 153 
153 0 153 153 0 153 153 0 153 
153 0 153 153 0 153 153 0 153 
153 0 153 153 0 153 153 0 153 
153 0 153 153 0 153 153 0 153 
153 0 153 153 0 153 153 0 153 
153 0 153 153 0 153 153 0 153 
153 0 153 153 0 153 153 0 153 
153 0 153 153 0 153 153 0 153 
153 0 153 153 0 153 153 0 153 
153 0 153 153 0 153 153 0 153 
153 0 153 153 0 153 153 0 153 
153 0 153 153 0 153 153 0 153 
153 0 153 153 0 153 153 0 153 
153 0 153 153 0 153 153 0 153 
153 0 153 153 0 153 153 0 153 
153 0 153 153 0 153 153 0 153 
153 0 153 153 0 153 153 0 153 
153 0 153 153 0 153 153 0 153 
153 0 153 153 0 153 153 0 153 
153 0 153 153 0 153 153 0 153 
153 0 153 153 0 153 153 0 153 
153 0 153 153 0 153 153 0 153 
153 0 153 153 0 153 153 0 153 
153 0 153 153 0 153 153 0 153 
153 0 153 153 0 153 153 0 153 
153 0 153 153 0 153 153 0 153 
153 0 153 153 0 153 153 0 153 
153 0 153 153 0 153 153 0 153 
153 0 153 153 0 153 153 0 153 
153 0 153 153 0 153 153 0 153 
153 0 153 153 0 153 153 0 153 
153 0 153 153 0 153 153 0 153 
153 0 153 153 0 153 153 0 153 
153 0 153 153 0 153 153 0 153 
153 0 153 153 0 153 153 0 153 
153 0 153 153 0 153 153 0 153 
153 0 153 153 0 153 153 0 153 
153 0 153 153 0 153 153 0 153 
153 0 153 153 0 153 153 0 153 
153 0 153 153 0 153 153 0 153 
153 0 153 153 0 153 153 0 153 
153 0 153 153 0 153 153 0 153 
153 0 153 153 0 153 153 0 153 
153 0 153 153 0 153 153 0 153 
153 0 153 153 0 153 153 0 153 
153 0 153 153 0 153 153 0 153 
153 0 153 153 0 153 153 0 153 
153 0 153 153 0 153 153 0 153 
153 0 153 153 0 153 153 0 153 
153 0 153 153 0 153 153 0 153 
153 0 153 153 0 153 153 0 153 
153 0 153 153 0 153 153 0 153 
153 0 153 153 0 153 153 0 153 
153 0 153 153 0 153 153 0 153 
153 0 153 153 0 153 153 0 153 
153 0 153 153 0 153 153 0 153 
153 0 153 153 0 153 153 0 153 
153 0 153 153 0 153 153 0 153 
153 0 153 153 0 153 153 0 153 
153 0 153 153 0 153 153 0 153 
153 0 153 153 0 153 153 0 153 
153 0 153 153 0 153 153 0 153 
153 0 153 153 0 153 153 0 153 
153 0 153 153 0 153 153 0 153 
153 0 153 153 0 153 153 0 153 
153 0 153 153 0 153 153 0 153 
153 0 153 153 0 153 153 0 153 
153 0 153 153 0 153 153 0 153 
153 0 153 153 0 153 153 0 153 
153 0 153 153 0 153 153 0 153 
153 0 153 153 0 153 153 0 153 
153 0 153 153 0 153 153 0 153 
153 0 153 153 0 153 153 0 153 
153 0 153 153 0 153 153 0 153 
153 0 153 153 0 153 153 0 153 
153 0 153 153 0 153 153 0 153 
153 0 153 153 0 153 153 0 153 
153 0 153 153 0 153 153 0 153 
153 0 153 153 0 153 153 0 153 
153 0 153 153 0 153 153 0 153 
153 0 153 153 0 153 153 0 153 
153 0 153 153 0 153 153 0 153 
153 0 153 153 0 153 153 0 153 
153 0 153 153 0 153 153 0 153 
153 0 153 153 0 153 153 0 153 
153 0 153 153 0 153 153 0 153 
153 0 153 153 0 153 153 0 153 
153 0 153 153 0 153 153 0 153 
153 0 153 153 0 153 153 0 153 
153 0 153 153 0 153 153 0 153 
153 0 153 153 0 153 153 0 153 
153 0 153 153 0 153 153 0 153 
153 0 153 153 0 153 153 0 153 
153 0 153 153 0 153 153 0 153 
153 0 153 153 0 153 153 0 153 
153 0 153 153 0 153 153 0 153 
153 0 153 153 0 153 153 0 153 
153 0 153 153 0 153 153 0 153 
153 0 153 153 0 153 153 0 153 
153 0 153 153 0 153 153 0 153 
153 0 153 153 0 153 153 0 153 
153 0 153 153 0 153 153 0 153 
153 0 153 153 0 153 153 0 153 
153 0 153 153 0 153 153 0 153 
153 0 153 153 0 153 153 0 153 
153 0 153 153 0 153 153 0 153 
153 0 153 153 0 153 153 0 153 
153 0 153 153 0 153 153 0 153 
153 0 153 153 0 153 153 0 153 
153 0 153 153 0 153 153 0 153 
153 0 153 153 0 153 153 0 153 
153 0 153 153 0 153 153 0 153 
153 0 153 153 0 153 153 0 153 
153 0 153 153 0 153 153 0 153 
153 0 153 153 0 153 153 0 153 
153 0 153 153 0 153 153 0 153 
153 0 153 153 0 153 153 0 153 
153 0 153 153 0 153 153 0 153 
153 0 153 153 0 153 153 0 153 
153 0 153 153 0 153 153 0 153 
153 0 153 153 0 153 153 0 153 
153 0 153 153 0 153 153 0 153 
153 0 153 153 0 153 153 0 153 
153 0 153 153 0 153 153 0 153 
153 0 153 153 0 153 153 0 153 
153 0 153 153 0 153 153 0 153 
153 0 153 153 0 153 153 0 153 
153 0 153 153 0 153 153 0 153 
153 0 153 153 0 153 153 0 153 
153 0 153 153 0 153 153 0 153 
153 0 153 153 0 153 153 0 153 
153 0 153 153 0 153 153 0 153 
153 0 153 153 0 153 153 0 153 
153 0 153 153 0 153 153 0 153 
153 0 153 153 0 153 153 0 153 
153 0 153 153 0 153 153 0 153 
153 0 153 153 0 153 153 0 153 
153 0 153 153 0 153 153 0 153 
153 0 153 153 0 153 153 0 153 
153 0 153 153 0 153 153 0 153 
153 0 153 153 0 153 153 0 153 
153 0 153 153 0 153 153 0 153 
153 0 153 153 0 153 153 0 153 
153 0 153 153 0 153 153 0 153 
153 0 153 153 0 153 153 0 153 
153 0 153 153 0 153 153 0 153 
153 0 153 153 0 153 153 0 153 
153 0 153 153 0 153 153 0 153 
153 0 153 153 0 153 153 0 153 
153 0 153 153 0 153 153 0 153 
153 0 153 153 0 153 153 0 153 
153 0 153 153 0 153 153 0 153 
153 0 153 153 0 153 153 0 153 
153 0 153 153 0 153 153 0 153 
153 0 153 153 0 153 153 0 153 
153 0 153 153 0 153 153 0 153 
153 0 153 153 0 153 153 0 153 
153 0 153 153 0 153 153 0 153 
153 0 153 153 0 153 153 0 153 
153 0 153 153 0 153 153 0 153 
153 0 153 153 0 153 153 0 153 
153 0 153 153 0 153 153 0 153 
153 0 153 153 0 153 153 0 153 
153 0 153 153 0 153 153 0 153 
153 0 153 153 0 153 153 0 153 
153 0 153 153 0 153 153 0 153 
153 0 153 153 0 153 153 0 153 
153 0 153 153 0 153 153 0 153 
153 0 153 153 0 153 153 0 153 
153 0 153 153 0 153 153 0 153 
153 0 153 153 0 153 153 0 153 
153 0 153 153 0 153 153 0 153 
153 0 153 153 0 153 153 0 153 
153 0 153 153 0 153 153 0 153 
153 0 153 153 0 153 153 0 153 
153 0 153 153 0 153 153 0 153 
153 0 153 153 0 153 153 0 153 
153 0 153 153 0 153 153 0 153 
153 0 153 153 0 153 153 0 153 
153 0 153 153 0 153 153 0 153 
153 0 153 153 0 153 153 0 153 
153 0 153 153 0 153 153 0 153 
153 0 153 153 0 153 153 0 153 
153 0 153 153 0 153 153 0 153 
153 0 153 153 0 153 153 0 153 
153 0 153 153 0 153 153 0 153 
153 0 153 153 0 153 153 0 153 
153 0 153 153 0 153 153 0 153 
153 0 153 153 0 153 153 0 153 
153 0 153 153 0 153 153 0 153 
153 0 153 153 0 153 153 0 153 
153 0 153 153 0 153 153 0 153 
153 0 153 153 0 153 153 0 153 
153 0 153 153 0 153 153 0 153 
153 0 153 153 0 153 153 0 153 
153 0 153 153 0 153 153 0 153 
153 0 153 153 0 153 153 0 153 
153 0 153 153 0 153 153 0 153 
153 0 153 153 0 153 153 0 153 
153 0 153 153 0 153 153 0 153 
153 0 153 153 0 153 153 0 153 
153 0 153 153 0 153 153 0 153 
153 0 153 153 0 153 153 0 153 
153 0 153 153 0 153 153 0 153 
153 0 153 153 0 153 153 0 153 
153 0 153 153 0 153 153 0 153 
153 0 153 153 0 153 153 0 153 
153 0 153 153 0 153 153 0 153 
153 0 153 153 0 153 153 0 153 
153 0 153 153 0 153 153 0 153 
153 0 153 153 0 153 153 0 153 
153 0 153 153 0 153 153 0 153 
153 0 153 153 0 153 153 0 153 
153 0 153 153 0 153 153 0 153 
153 0 153 153 0 153 153 0 153 
153 0 153 153 0 153 153 0 153 
153 0 153 153 0 153 153 0 153 
153 0 153 153 0 153 153 0 153 
153 0 153 153 0 153 153 0 153 
153 0 153 153 0 153 153 0 153 
153 0 153 153 0 153 153 0 153 
153 0 153 153 0 153 153 0 153 
153 0 153 153 0 153 153 0 153 
153 0 153 153 0 153 153 0 153 
153 0 153 153 0 153 153 0 153 
153 0 153 153 0 153 153 0 153 
153 0 153 153 0 153 153 0 153 
153 0 153 153 0 153 153 0 153 
153 0 153 153 0 153 153 0 153 
153 0 153 153 0 153 153 0 153 
153 0 153 153 0 153 153 0 153 
153 0 153 153 0 153 153 0 153 
153 0 153 153 0 153 153 0 153 
153 0 153 153 0 153 153 0 153 
153 0 153 153 0 153 153 0 153 
153 0 153 153 0 153 153 0 153 
153 0 153 153 0 153 153 0 153 
153 0 153 153 0 153 153 0 153 
153 0 153 153 0 153 153 0 153 
153 0 153 153 0 153 153 0 153 
153 0 153 153 0 153 153 0 153 
153 0 153 153 0 153 153 0 153 
153 0 153 153 0 153 153 0 153 
153 0 153 153 0 153 153 0 153 
153 0 153 153 0 153 153 0 153 
153 0 153 153 0 153 153 0 153 
153 0 153 153 0 153 153 0 153 
153 0 153 153 0 153 153 0 153 
153 0 153 153 0 153 153 0 153 
153 0 153 153 0 153 153 0 153 
153 0 153 153 0 153 153 0 153 
153 0 153 153 0 153 153 0 153 
153 0 153 153 0 153 153 0 153 
153 0 153 153 0 153 153 0 153 
153 0 153 153 0 153 153 0 153 
153 0 153 153 0 153 153 0 153 
153 0 153 153 0 153 153 0 153 
153 0 153 153 0 153 153 0 153 
153 0 153 153 0 153 153 0 153 
153 0 153 153 0 153 153 0 153 
153 0 153 153 0 153 153 0 153 
153 0 153 153 0 153 153 0 153 
153 0 153 153 0 153 153 0 153 
153 0 153 153 0 153 153 0 153 
153 0 153 153 0 153 153 0 153 
153 0 153 153 0 153 153 0 153 
153 0 153 153 0 153 153 0 153 
153 0 153 153 0 153 153 0 153 
153 0 153 153 0 153 153 0 153 
153 0 153 153 0 153 153 0 153 
153 0 153 153 0 153 153 0 153 
153 0 153 153 0 153 153 0 153 
153 0 153 153 0 153 153 0 153 
153 0 153 153 0 153 153 0 153 
153 0 153 153 0 153 153 0 153 
153 0 153 153 0 153 153 0 153 
153 0 153 153 0 153 153 0 153 
153 0 153 153 0 153 153 0 153 
153 0 153 153 0 153 153 0 153 
153 0 153 153 0 153 153 0 153 
153 0 153 153 0 153 153 0 153 
153 0 153 153 0 153 153 0 153 
153 0 153 153 0 153 153 0 153 
153 0 153 153 0 153 153 0 153 
153 0 153 153 0 153 153 0 153 
153 0 153 153 0 153 153 0 153 
153 0 153 153 0 153 153 0 153 
153 0 153 153 0 153 153 0 153 
153 0 153 153 0 153 153 0 153 
153 0 153 153 0 153 153 0 153 
153 0 153 153 0 153 153 0 153 
153 0 153 153 0 153 153 0 153 
153 0 153 153 0 153 153 0 153 
153 0 153 153 0 153 153 0 153 
153 0 153 153 0 153 153 0 153 
153 0 153 153 0 153 153 0 153 
153 0 153 153 0 153 153 0 153 
153 0 153 153 0 153 153 0 153 
153 0 153 153 0 153 153 0 153 
153 0 153 153 0 153 153 0 153 
153 0 153 153 0 153 153 0 153 
153 0 153 153 0 153 153 0 153 
153 0 153 153 0 153 153 0 153 
153 0 153 153 0 153 153 0 153 