# vtk DataFile Version 3.0
vtk output
ASCII
DATASET POLYDATA
POINTS 200 float
178 289.5 0 178.094 289.497 0 178.188 289.488 0 
178.281 289.473 0 178.373 289.453 0 178.464 289.427 0 
178.552 289.395 0 178.639 289.357 0 178.723 289.314 0 
178.804 289.266 0 178.882 289.214 0 178.956 289.156 0 
179.027 289.093 0 179.093 289.027 0 179.156 288.956 0 
179.214 288.882 0 179.266 288.804 0 179.314 288.723 0 
179.357 288.639 0 179.395 288.552 0 179.427 288.464 0 
179.453 288.373 0 179.473 288.281 0 179.488 288.188 0 
179.497 288.094 0 179.5 288 0 179.497 287.906 0 
179.488 287.812 0 179.473 287.719 0 179.453 287.627 0 
179.427 287.536 0 179.395 287.448 0 179.357 287.361 0 
179.314 287.277 0 179.266 287.196 0 179.214 287.118 0 
179.156 287.044 0 179.093 286.973 0 179.027 286.907 0 
178.956 286.844 0 178.882 286.786 0 178.804 286.734 0 
178.723 286.686 0 178.639 286.643 0 178.552 286.605 0 
178.464 286.573 0 178.373 286.547 0 178.281 286.527 0 
178.188 286.512 0 178.094 286.503 0 178 286.5 0 
177.906 286.503 0 177.812 286.512 0 177.719 286.527 0 
177.627 286.547 0 177.536 286.573 0 177.448 286.605 0 
177.361 286.643 0 177.277 286.686 0 177.196 286.734 0 
177.118 286.786 0 177.044 286.844 0 176.973 286.907 0 
176.907 286.973 0 176.844 287.044 0 176.786 287.118 0 
176.734 287.196 0 176.686 287.277 0 176.643 287.361 0 
176.605 287.448 0 176.573 287.536 0 176.547 287.627 0 
176.527 287.719 0 176.512 287.812 0 176.503 287.906 0 
176.5 288 0 176.503 288.094 0 176.512 288.188 0 
176.527 288.281 0 176.547 288.373 0 176.573 288.464 0 
176.605 288.552 0 176.643 288.639 0 176.686 288.723 0 
176.734 288.804 0 176.786 288.882 0 176.844 288.956 0 
176.907 289.027 0 176.973 289.093 0 177.044 289.156 0 
177.118 289.214 0 177.196 289.266 0 177.277 289.314 0 
177.361 289.357 0 177.448 289.395 0 177.536 289.427 0 
177.627 289.453 0 177.719 289.473 0 177.812 289.488 0 
177.906 289.497 0 65 276.5 0 65.0942 276.497 0 
65.188 276.488 0 65.2811 276.473 0 65.373 276.453 0 
65.4635 276.427 0 65.5522 276.395 0 65.6387 276.357 0 
65.7226 276.314 0 65.8037 276.266 0 65.8817 276.214 0 
65.9561 276.156 0 66.0268 276.093 0 66.0935 276.027 0 
66.1558 275.956 0 66.2135 275.882 0 66.2665 275.804 0 
66.3145 275.723 0 66.3572 275.639 0 66.3947 275.552 0 
66.4266 275.464 0 66.4529 275.373 0 66.4734 275.281 0 
66.4882 275.188 0 66.497 275.094 0 66.5 275 0 
66.497 274.906 0 66.4882 274.812 0 66.4734 274.719 0 
66.4529 274.627 0 66.4266 274.536 0 66.3947 274.448 0 
66.3572 274.361 0 66.3145 274.277 0 66.2665 274.196 0 
66.2135 274.118 0 66.1558 274.044 0 66.0935 273.973 0 
66.0268 273.907 0 65.9561 273.844 0 65.8817 273.786 0 
65.8037 273.734 0 65.7226 273.686 0 65.6387 273.643 0 
65.5522 273.605 0 65.4635 273.573 0 65.373 273.547 0 
65.2811 273.527 0 65.188 273.512 0 65.0942 273.503 0 
65 273.5 0 64.9058 273.503 0 64.812 273.512 0 
64.7189 273.527 0 64.627 273.547 0 64.5365 273.573 0 
64.4478 273.605 0 64.3613 273.643 0 64.2774 273.686 0 
64.1963 273.734 0 64.1183 273.786 0 64.0439 273.844 0 
63.9732 273.907 0 63.9065 273.973 0 63.8442 274.044 0 
63.7865 274.118 0 63.7335 274.196 0 63.6855 274.277 0 
63.6428 274.361 0 63.6053 274.448 0 63.5734 274.536 0 
63.5471 274.627 0 63.5266 274.719 0 63.5118 274.812 0 
63.503 274.906 0 63.5 275 0 63.503 275.094 0 
63.5118 275.188 0 63.5266 275.281 0 63.5471 275.373 0 
63.5734 275.464 0 63.6053 275.552 0 63.6428 275.639 0 
63.6855 275.723 0 63.7335 275.804 0 63.7865 275.882 0 
63.8442 275.956 0 63.9065 276.027 0 63.9732 276.093 0 
64.0439 276.156 0 64.1183 276.214 0 64.1963 276.266 0 
64.2774 276.314 0 64.3613 276.357 0 64.4478 276.395 0 
64.5365 276.427 0 64.627 276.453 0 64.7189 276.473 0 
64.812 276.488 0 64.9058 276.497 0 
LINES 2 204
101 0 1 2 3 4 5 6 7 8 9 10 11 12 13 14 15 16 17 18 19 20 21 22 23 24 25 26 27 28 29 30 31 32 33 34 35 36 37 38 39 40 41 42 43 44 45 46 47 48 49 50 51 52 53 54 55 56 57 58 59 60 61 62 63 64 65 66 67 68 69 70 71 72 73 74 75 76 77 78 79 80 81 82 83 84 85 86 87 88 89 90 91 92 93 94 95 96 97 98 99 0 
101 100 101 102 103 104 105 106 107 108 109 110 111 112 113 114 115 116 117 118 119 120 121 122 123 124 125 126 127 128 129 130 131 132 133 134 135 136 137 138 139 140 141 142 143 144 145 146 147 148 149 150 151 152 153 154 155 156 157 158 159 160 161 162 163 164 165 166 167 168 169 170 171 172 173 174 175 176 177 178 179 180 181 182 183 184 185 186 187 188 189 190 191 192 193 194 195 196 197 198 199 100 

POINT_DATA 200
SCALARS scales float
LOOKUP_TABLE default
3 3 3 3 3 3 3 3 3 
3 3 3 3 3 3 3 3 3 
3 3 3 3 3 3 3 3 3 
3 3 3 3 3 3 3 3 3 
3 3 3 3 3 3 3 3 3 
3 3 3 3 3 3 3 3 3 
3 3 3 3 3 3 3 3 3 
3 3 3 3 3 3 3 3 3 
3 3 3 3 3 3 3 3 3 
3 3 3 3 3 3 3 3 3 
3 3 3 3 3 3 3 3 3 
3 3 3 3 3 3 3 3 3 
3 3 3 3 3 3 3 3 3 
3 3 3 3 3 3 3 3 3 
3 3 3 3 3 3 3 3 3 
3 3 3 3 3 3 3 3 3 
3 3 3 3 3 3 3 3 3 
3 3 3 3 3 3 3 3 3 
3 3 3 3 3 3 3 3 3 
3 3 3 3 3 3 3 3 3 
3 3 3 3 3 3 3 3 3 
3 3 3 3 3 3 3 3 3 
3 3 
FIELD FieldData 1
Colors 3 200 unsigned_char
153 0 153 153 0 153 153 0 153 
153 0 153 153 0 153 153 0 153 
153 0 153 153 0 153 153 0 153 
153 0 153 153 0 153 153 0 153 
153 0 153 153 0 153 153 0 153 
153 0 153 153 0 153 153 0 153 
153 0 153 153 0 153 153 0 153 
153 0 153 153 0 153 153 0 153 
153 0 153 153 0 153 153 0 153 
153 0 153 153 0 153 153 0 153 
153 0 153 153 0 153 153 0 153 
153 0 153 153 0 153 153 0 153 
153 0 153 153 0 153 153 0 153 
153 0 153 153 0 153 153 0 153 
153 0 153 153 0 153 153 0 153 
153 0 153 153 0 153 153 0 153 
153 0 153 153 0 153 153 0 153 
153 0 153 153 0 153 153 0 153 
153 0 153 153 0 153 153 0 153 
153 0 153 153 0 153 153 0 153 
153 0 153 153 0 153 153 0 153 
153 0 153 153 0 153 153 0 153 
153 0 153 153 0 153 153 0 153 
153 0 153 153 0 153 153 0 153 
153 0 153 153 0 153 153 0 153 
153 0 153 153 0 153 153 0 153 
153 0 153 153 0 153 153 0 153 
153 0 153 153 0 153 153 0 153 
153 0 153 153 0 153 153 0 153 
153 0 153 153 0 153 153 0 153 
153 0 153 153 0 153 153 0 153 
153 0 153 153 0 153 153 0 153 
153 0 153 153 0 153 153 0 153 
153 0 153 153 0 153 153 0 153 
153 0 153 153 0 153 153 0 153 
153 0 153 153 0 153 153 0 153 
153 0 153 153 0 153 153 0 153 
153 0 153 153 0 153 153 0 153 
153 0 153 153 0 153 153 0 153 
153 0 153 153 0 153 153 0 153 
153 0 153 153 0 153 153 0 153 
153 0 153 153 0 153 153 0 153 
153 0 153 153 0 153 153 0 153 
153 0 153 153 0 153 153 0 153 
153 0 153 153 0 153 153 0 153 
153 0 153 153 0 153 153 0 153 
153 0 153 153 0 153 153 0 153 
153 0 153 153 0 153 153 0 153 
153 0 153 153 0 153 153 0 153 
153 0 153 153 0 153 153 0 153 
153 0 153 153 0 153 153 0 153 
153 0 153 153 0 153 153 0 153 
153 0 153 153 0 153 153 0 153 
153 0 153 153 0 153 153 0 153 
153 0 153 153 0 153 153 0 153 
153 0 153 153 0 153 153 0 153 
153 0 153 153 0 153 153 0 153 
153 0 153 153 0 153 153 0 153 
153 0 153 153 0 153 153 0 153 
153 0 153 153 0 153 153 0 153 
153 0 153 153 0 153 153 0 153 
153 0 153 153 0 153 153 0 153 
153 0 153 153 0 153 153 0 153 
153 0 153 153 0 153 153 0 153 
153 0 153 153 0 153 153 0 153 
153 0 153 153 0 153 153 0 153 
153 0 153 153 0 153 
