# vtk DataFile Version 3.0
vtk output
ASCII
DATASET POLYDATA
POINTS 1700 float
1124.32 358.148 0 1124.39 358.146 0 1124.45 358.14 0 
1124.51 358.13 0 1124.57 358.116 0 1124.63 358.099 0 
1124.69 358.078 0 1124.75 358.053 0 1124.81 358.024 0 
1124.86 357.992 0 1124.91 357.957 0 1124.96 357.918 0 
1125.01 357.877 0 1125.05 357.832 0 1125.09 357.785 0 
1125.13 357.736 0 1125.17 357.684 0 1125.2 357.629 0 
1125.23 357.574 0 1125.25 357.516 0 1125.27 357.457 0 
1125.29 357.396 0 1125.31 357.335 0 1125.32 357.273 0 
1125.32 357.211 0 1125.32 357.148 0 1125.32 357.085 0 
1125.32 357.022 0 1125.31 356.96 0 1125.29 356.899 0 
1125.27 356.839 0 1125.25 356.78 0 1125.23 356.722 0 
1125.2 356.666 0 1125.17 356.612 0 1125.13 356.56 0 
1125.09 356.51 0 1125.05 356.463 0 1125.01 356.419 0 
1124.96 356.377 0 1124.91 356.339 0 1124.86 356.303 0 
1124.81 356.271 0 1124.75 356.243 0 1124.69 356.218 0 
1124.63 356.197 0 1124.57 356.179 0 1124.51 356.165 0 
1124.45 356.156 0 1124.39 356.15 0 1124.32 356.148 0 
1124.26 356.15 0 1124.2 356.156 0 1124.14 356.165 0 
1124.07 356.179 0 1124.01 356.197 0 1123.96 356.218 0 
1123.9 356.243 0 1123.84 356.271 0 1123.79 356.303 0 
1123.74 356.339 0 1123.69 356.377 0 1123.64 356.419 0 
1123.59 356.463 0 1123.55 356.51 0 1123.51 356.56 0 
1123.48 356.612 0 1123.45 356.666 0 1123.42 356.722 0 
1123.39 356.78 0 1123.37 356.839 0 1123.35 356.899 0 
1123.34 356.96 0 1123.33 357.022 0 1123.33 357.085 0 
1123.32 357.148 0 1123.33 357.211 0 1123.33 357.273 0 
1123.34 357.335 0 1123.35 357.396 0 1123.37 357.457 0 
1123.39 357.516 0 1123.42 357.574 0 1123.45 357.629 0 
1123.48 357.684 0 1123.51 357.736 0 1123.55 357.785 0 
1123.59 357.832 0 1123.64 357.877 0 1123.69 357.918 0 
1123.74 357.957 0 1123.79 357.992 0 1123.84 358.024 0 
1123.9 358.053 0 1123.96 358.078 0 1124.01 358.099 0 
1124.07 358.116 0 1124.14 358.13 0 1124.2 358.14 0 
1124.26 358.146 0 1082.06 346.77 0 1082.13 346.768 0 
1082.19 346.762 0 1082.25 346.752 0 1082.31 346.738 0 
1082.37 346.721 0 1082.43 346.699 0 1082.49 346.674 0 
1082.55 346.646 0 1082.6 346.614 0 1082.65 346.579 0 
1082.7 346.54 0 1082.75 346.499 0 1082.79 346.454 0 
1082.83 346.407 0 1082.87 346.357 0 1082.91 346.305 0 
1082.94 346.251 0 1082.97 346.195 0 1082.99 346.138 0 
1083.01 346.079 0 1083.03 346.018 0 1083.05 345.957 0 
1083.06 345.895 0 1083.06 345.832 0 1083.06 345.77 0 
1083.06 345.707 0 1083.06 345.644 0 1083.05 345.582 0 
1083.03 345.521 0 1083.01 345.461 0 1082.99 345.401 0 
1082.97 345.344 0 1082.94 345.288 0 1082.91 345.234 0 
1082.87 345.182 0 1082.83 345.132 0 1082.79 345.085 0 
1082.75 345.041 0 1082.7 344.999 0 1082.65 344.961 0 
1082.6 344.925 0 1082.55 344.893 0 1082.49 344.865 0 
1082.43 344.84 0 1082.37 344.819 0 1082.31 344.801 0 
1082.25 344.787 0 1082.19 344.777 0 1082.13 344.772 0 
1082.06 344.77 0 1082 344.772 0 1081.94 344.777 0 
1081.88 344.787 0 1081.82 344.801 0 1081.75 344.819 0 
1081.7 344.84 0 1081.64 344.865 0 1081.58 344.893 0 
1081.53 344.925 0 1081.48 344.961 0 1081.43 344.999 0 
1081.38 345.041 0 1081.33 345.085 0 1081.29 345.132 0 
1081.25 345.182 0 1081.22 345.234 0 1081.19 345.288 0 
1081.16 345.344 0 1081.13 345.401 0 1081.11 345.461 0 
1081.1 345.521 0 1081.08 345.582 0 1081.07 345.644 0 
1081.07 345.707 0 1081.06 345.77 0 1081.07 345.832 0 
1081.07 345.895 0 1081.08 345.957 0 1081.1 346.018 0 
1081.11 346.079 0 1081.13 346.138 0 1081.16 346.195 0 
1081.19 346.251 0 1081.22 346.305 0 1081.25 346.357 0 
1081.29 346.407 0 1081.33 346.454 0 1081.38 346.499 0 
1081.43 346.54 0 1081.48 346.579 0 1081.53 346.614 0 
1081.58 346.646 0 1081.64 346.674 0 1081.7 346.699 0 
1081.75 346.721 0 1081.82 346.738 0 1081.88 346.752 0 
1081.94 346.762 0 1082 346.768 0 179.628 412.952 0 
179.691 412.95 0 179.753 412.944 0 179.815 412.935 0 
179.877 412.921 0 179.937 412.903 0 179.996 412.882 0 
180.054 412.857 0 180.11 412.829 0 180.164 412.797 0 
180.216 412.761 0 180.265 412.723 0 180.312 412.681 0 
180.357 412.637 0 180.398 412.59 0 180.437 412.54 0 
180.472 412.488 0 180.504 412.434 0 180.533 412.378 0 
180.558 412.32 0 180.579 412.261 0 180.596 412.201 0 
180.61 412.14 0 180.62 412.078 0 180.626 412.015 0 
180.628 411.952 0 180.626 411.889 0 180.62 411.827 0 
180.61 411.765 0 180.596 411.704 0 180.579 411.643 0 
180.558 411.584 0 180.533 411.526 0 180.504 411.47 0 
180.472 411.416 0 180.437 411.364 0 180.398 411.315 0 
180.357 411.268 0 180.312 411.223 0 180.265 411.182 0 
180.216 411.143 0 180.164 411.108 0 180.11 411.076 0 
180.054 411.047 0 179.996 411.022 0 179.937 411.001 0 
179.877 410.984 0 179.815 410.97 0 179.753 410.96 0 
179.691 410.954 0 179.628 410.952 0 179.565 410.954 0 
179.503 410.96 0 179.44 410.97 0 179.379 410.984 0 
179.319 411.001 0 179.26 411.022 0 179.202 411.047 0 
179.146 411.076 0 179.092 411.108 0 179.04 411.143 0 
178.99 411.182 0 178.943 411.223 0 178.899 411.268 0 
178.857 411.315 0 178.819 411.364 0 178.784 411.416 0 
178.752 411.47 0 178.723 411.526 0 178.698 411.584 0 
178.677 411.643 0 178.659 411.704 0 178.646 411.765 0 
178.636 411.827 0 178.63 411.889 0 178.628 411.952 0 
178.63 412.015 0 178.636 412.078 0 178.646 412.14 0 
178.659 412.201 0 178.677 412.261 0 178.698 412.32 0 
178.723 412.378 0 178.752 412.434 0 178.784 412.488 0 
178.819 412.54 0 178.857 412.59 0 178.899 412.637 0 
178.943 412.681 0 178.99 412.723 0 179.04 412.761 0 
179.092 412.797 0 179.146 412.829 0 179.202 412.857 0 
179.26 412.882 0 179.319 412.903 0 179.379 412.921 0 
179.44 412.935 0 179.503 412.944 0 179.565 412.95 0 
372.352 246.348 0 372.414 246.346 0 372.477 246.34 0 
372.539 246.33 0 372.6 246.316 0 372.661 246.299 0 
372.72 246.278 0 372.777 246.253 0 372.833 246.224 0 
372.887 246.192 0 372.939 246.157 0 372.989 246.118 0 
373.036 246.077 0 373.081 246.032 0 373.122 245.985 0 
373.161 245.936 0 373.196 245.884 0 373.228 245.83 0 
373.256 245.774 0 373.281 245.716 0 373.303 245.657 0 
373.32 245.596 0 373.334 245.535 0 373.344 245.473 0 
373.35 245.411 0 373.352 245.348 0 373.35 245.285 0 
373.344 245.222 0 373.334 245.16 0 373.32 245.099 0 
373.303 245.039 0 373.281 244.98 0 373.256 244.922 0 
373.228 244.866 0 373.196 244.812 0 373.161 244.76 0 
373.122 244.71 0 373.081 244.663 0 373.036 244.619 0 
372.989 244.577 0 372.939 244.539 0 372.887 244.503 0 
372.833 244.471 0 372.777 244.443 0 372.72 244.418 0 
372.661 244.397 0 372.6 244.379 0 372.539 244.366 0 
372.477 244.356 0 372.414 244.35 0 372.352 244.348 0 
372.289 244.35 0 372.226 244.356 0 372.164 244.366 0 
372.103 244.379 0 372.043 244.397 0 371.983 244.418 0 
371.926 244.443 0 371.87 244.471 0 371.816 244.503 0 
371.764 244.539 0 371.714 244.577 0 371.667 244.619 0 
371.623 244.663 0 371.581 244.71 0 371.543 244.76 0 
371.507 244.812 0 371.475 244.866 0 371.447 244.922 0 
371.422 244.98 0 371.401 245.039 0 371.383 245.099 0 
371.369 245.16 0 371.359 245.222 0 371.354 245.285 0 
371.352 245.348 0 371.354 245.411 0 371.359 245.473 0 
371.369 245.535 0 371.383 245.596 0 371.401 245.657 0 
371.422 245.716 0 371.447 245.774 0 371.475 245.83 0 
371.507 245.884 0 371.543 245.936 0 371.581 245.985 0 
371.623 246.032 0 371.667 246.077 0 371.714 246.118 0 
371.764 246.157 0 371.816 246.192 0 371.87 246.224 0 
371.926 246.253 0 371.983 246.278 0 372.043 246.299 0 
372.103 246.316 0 372.164 246.33 0 372.226 246.34 0 
372.289 246.346 0 313.543 455.899 0 313.606 455.897 0 
313.668 455.891 0 313.73 455.881 0 313.792 455.867 0 
313.852 455.85 0 313.911 455.828 0 313.969 455.803 0 
314.025 455.775 0 314.079 455.743 0 314.131 455.708 0 
314.18 455.669 0 314.227 455.628 0 314.272 455.583 0 
314.313 455.536 0 314.352 455.486 0 314.387 455.434 0 
314.419 455.38 0 314.448 455.324 0 314.473 455.267 0 
314.494 455.208 0 314.511 455.147 0 314.525 455.086 0 
314.535 455.024 0 314.541 454.961 0 314.543 454.899 0 
314.541 454.836 0 314.535 454.773 0 314.525 454.711 0 
314.511 454.65 0 314.494 454.59 0 314.473 454.531 0 
314.448 454.473 0 314.419 454.417 0 314.387 454.363 0 
314.352 454.311 0 314.313 454.261 0 314.272 454.214 0 
314.227 454.17 0 314.18 454.128 0 314.131 454.09 0 
314.079 454.054 0 314.025 454.022 0 313.969 453.994 0 
313.911 453.969 0 313.852 453.948 0 313.792 453.93 0 
313.73 453.916 0 313.668 453.907 0 313.606 453.901 0 
313.543 453.899 0 313.48 453.901 0 313.417 453.907 0 
313.355 453.916 0 313.294 453.93 0 313.234 453.948 0 
313.175 453.969 0 313.117 453.994 0 313.061 454.022 0 
313.007 454.054 0 312.955 454.09 0 312.905 454.128 0 
312.858 454.17 0 312.814 454.214 0 312.772 454.261 0 
312.734 454.311 0 312.698 454.363 0 312.667 454.417 0 
312.638 454.473 0 312.613 454.531 0 312.592 454.59 0 
312.574 454.65 0 312.561 454.711 0 312.551 454.773 0 
312.545 454.836 0 312.543 454.899 0 312.545 454.961 0 
312.551 455.024 0 312.561 455.086 0 312.574 455.147 0 
312.592 455.208 0 312.613 455.267 0 312.638 455.324 0 
312.667 455.38 0 312.698 455.434 0 312.734 455.486 0 
312.772 455.536 0 312.814 455.583 0 312.858 455.628 0 
312.905 455.669 0 312.955 455.708 0 313.007 455.743 0 
313.061 455.775 0 313.117 455.803 0 313.175 455.828 0 
313.234 455.85 0 313.294 455.867 0 313.355 455.881 0 
313.417 455.891 0 313.48 455.897 0 551.011 164.984 0 
551.074 164.982 0 551.136 164.976 0 551.198 164.966 0 
551.26 164.952 0 551.32 164.935 0 551.379 164.914 0 
551.437 164.889 0 551.493 164.86 0 551.547 164.828 0 
551.599 164.793 0 551.649 164.754 0 551.696 164.713 0 
551.74 164.668 0 551.782 164.621 0 551.82 164.572 0 
551.855 164.52 0 551.887 164.466 0 551.916 164.41 0 
551.941 164.352 0 551.962 164.293 0 551.98 164.233 0 
551.993 164.171 0 552.003 164.109 0 552.009 164.047 0 
552.011 163.984 0 552.009 163.921 0 552.003 163.859 0 
551.993 163.797 0 551.98 163.735 0 551.962 163.675 0 
551.941 163.616 0 551.916 163.558 0 551.887 163.502 0 
551.855 163.448 0 551.82 163.396 0 551.782 163.346 0 
551.74 163.299 0 551.696 163.255 0 551.649 163.213 0 
551.599 163.175 0 551.547 163.14 0 551.493 163.108 0 
551.437 163.079 0 551.379 163.054 0 551.32 163.033 0 
[...]
POINT_DATA 1700
SCALARS scales float
LOOKUP_TABLE default
2 2 2 2 2 2 2 2 2 
2 2 2 2 2 2 2 2 2 
2 2 2 2 2 2 2 2 2 
2 2 2 2 2 2 2 2 2 
2 2 2 2 2 2 2 2 2 
2 2 2 2 2 2 2 2 2 
2 2 2 2 2 2 2 2 2 
2 2 2 2 2 2 2 2 2 
2 2 2 2 2 2 2 2 2 
2 2 2 2 2 2 2 2 2 
2 2 2 2 2 2 2 2 2 
2 2 2 2 2 2 2 2 2 
2 2 2 2 2 2 2 2 2 
2 2 2 2 2 2 2 2 2 
2 2 2 2 2 2 2 2 2 
2 2 2 2 2 2 2 2 2 
2 2 2 2 2 2 2 2 2 
2 2 2 2 2 2 2 2 2 
2 2 2 2 2 2 2 2 2 
2 2 2 2 2 2 2 2 2 
2 2 2 2 2 2 2 2 2 
2 2 2 2 2 2 2 2 2 
2 2 2 2 2 2 2 2 2 
2 2 2 2 2 2 2 2 2 
2 2 2 2 2 2 2 2 2 
2 2 2 2 2 2 2 2 2 
2 2 2 2 2 2 2 2 2 
2 2 2 2 2 2 2 2 2 
2 2 2 2 2 2 2 2 2 
2 2 2 2 2 2 2 2 2 
2 2 2 2 2 2 2 2 2 
2 2 2 2 2 2 2 2 2 
2 2 2 2 2 2 2 2 2 
2 2 2 2 2 2 2 2 2 
2 2 2 2 2 2 2 2 2 
2 2 2 2 2 2 2 2 2 
2 2 2 2 2 2 2 2 2 
2 2 2 2 2 2 2 2 2 
2 2 2 2 2 2 2 2 2 
2 2 2 2 2 2 2 2 2 
2 2 2 2 2 2 2 2 2 
2 2 2 2 2 2 2 2 2 
2 2 2 2 2 2 2 2 2 
2 2 2 2 2 2 2 2 2 
2 2 2 2 2 2 2 2 2 
2 2 2 2 2 2 2 2 2 
2 2 2 2 2 2 2 2 2 
2 2 2 2 2 2 2 2 2 
2 2 2 2 2 2 2 2 2 
2 2 2 2 2 2 2 2 2 
2 2 2 2 2 2 2 2 2 
2 2 2 2 2 2 2 2 2 
2 2 2 2 2 2 2 2 2 
2 2 2 2 2 2 2 2 2 
2 2 2 2 2 2 2 2 2 
2 2 2 2 2 2 2 2 2 
2 2 2 2 2 2 2 2 2 
2 2 2 2 2 2 2 2 2 
2 2 2 2 2 2 2 2 2 
2 2 2 2 2 2 2 2 2 
2 2 2 2 2 2 2 2 2 
2 2 2 2 2 2 2 2 2 
2 2 2 2 2 2 2 2 2 
2 2 2 2 2 2 2 2 2 
2 2 2 2 2 2 2 2 2 
2 2 2 2 2 2 2 2 2 
2 2 2 2 2 2 2 2 2 
2 2 2 2 2 2 2 2 2 
2 2 2 2 2 2 2 2 2 
2 2 2 2 2 2 2 2 2 
2 2 2 2 2 2 2 2 2 
2 2 2 2 2 2 2 2 2 
2 2 2 2 2 2 2 2 2 
2 2 2 2 2 2 2 2 2 
2 2 2 2 2 2 2 2 2 
2 2 2 2 2 2 2 2 2 
2 2 2 2 2 2 2 2 2 
2 2 2 2 2 2 2 2 2 
2 2 2 2 2 2 2 2 2 
2 2 2 2 2 2 2 2 2 
2 2 2 2 2 2 2 2 2 
2 2 2 2 2 2 2 2 2 
2 2 2 2 2 2 2 2 2 
2 2 2 2 2 2 2 2 2 
2 2 2 2 2 2 2 2 2 
2 2 2 2 2 2 2 2 2 
2 2 2 2 2 2 2 2 2 
2 2 2 2 2 2 2 2 2 
2 2 2 2 2 2 2 2 2 
2 2 2 2 2 2 2 2 2 
2 2 2 2 2 2 2 2 2 
2 2 2 2 2 2 2 2 2 
2 2 2 2 2 2 2 2 2 
2 2 2 2 2 2 2 2 2 
2 2 2 2 2 2 2 2 2 
2 2 2 2 2 2 2 2 2 
2 2 2 2 2 2 2 2 2 
2 2 2 2 2 2 2 2 2 
2 2 2 2 2 2 2 2 2 
2 2 2 2 2 2 2 2 2 
2 2 2 2 2 2 2 2 2 
2 2 2 2 2 2 2 2 2 
2 2 2 2 2 2 2 2 2 
2 2 2 2 2 2 2 2 2 
2 2 2 2 2 2 2 2 2 
2 2 2 2 2 2 2 2 2 
2 2 2 2 2 2 2 2 2 
2 2 2 2 2 2 2 2 2 
2 2 2 2 2 2 2 2 2 
2 2 2 2 2 2 2 2 2 
2 2 2 2 2 2 2 2 2 
2 2 2 2 2 2 2 2 2 
2 2 2 2 2 2 2 2 2 
2 2 2 2 2 2 2 2 2 
2 2 2 2 2 2 2 2 2 
2 2 2 2 2 2 2 2 2 
2 2 2 2 2 2 2 2 2 
2 2 2 2 2 2 2 2 2 
2 2 2 2 2 2 2 2 2 
2 2 2 2 2 2 2 2 2 
2 2 2 2 2 2 2 2 2 
2 2 2 2 2 2 2 2 2 
2 2 2 2 2 2 2 2 2 
2 2 2 2 2 2 2 2 2 
2 2 2 2 2 2 2 2 2 
2 2 2 2 2 2 2 2 2 
2 2 2 2 2 2 2 2 2 
2 2 2 2 2 2 2 2 2 
2 2 2 2 2 2 2 2 2 
2 2 2 2 2 2 2 2 2 
2 2 2 2 2 2 2 2 2 
2 2 2 2 2 2 2 2 2 
2 2 2 2 2 2 2 2 2 
2 2 2 2 2 2 2 2 2 
2 2 2 2 2 2 2 2 2 
2 2 2 2 2 2 2 2 2 
2 2 2 2 2 2 2 2 2 
2 2 2 2 2 2 2 2 2 
2 2 2 2 2 2 2 2 2 
2 2 2 2 2 2 2 2 2 
2 2 2 2 2 2 2 2 2 
2 2 2 2 2 2 2 2 2 
2 2 2 2 2 2 2 2 2 
2 2 2 2 2 2 2 2 2 
2 2 2 2 2 2 2 2 2 
2 2 2 2 2 2 2 2 2 
2 2 2 2 2 2 2 2 2 
2 2 2 2 2 2 2 2 2 
2 2 2 2 2 2 2 2 2 
2 2 2 2 2 2 2 2 2 
2 2 2 2 2 2 2 2 2 
2 2 2 2 2 2 2 2 2 
2 2 2 2 2 2 2 2 2 
2 2 2 2 2 2 2 2 2 
2 2 2 2 2 2 2 2 2 
2 2 2 2 2 2 2 2 2 
2 2 2 2 2 2 2 2 2 
2 2 2 2 2 2 2 2 2 
2 2 2 2 2 2 2 2 2 
2 2 2 2 2 2 2 2 2 
2 2 2 2 2 2 2 2 2 
2 2 2 2 2 2 2 2 2 
2 2 2 2 2 2 2 2 2 
2 2 2 2 2 2 2 2 2 
2 2 2 2 2 2 2 2 2 
2 2 2 2 2 2 2 2 2 
2 2 2 2 2 2 2 2 2 
2 2 2 2 2 2 2 2 2 
2 2 2 2 2 2 2 2 2 
2 2 2 2 2 2 2 2 2 
2 2 2 2 2 2 2 2 2 
2 2 2 2 2 2 2 2 2 
2 2 2 2 2 2 2 2 2 
2 2 2 2 2 2 2 2 2 
2 2 2 2 2 2 2 2 2 
2 2 2 2 2 2 2 2 2 
2 2 2 2 2 2 2 2 2 
2 2 2 2 2 2 2 2 2 
2 2 2 2 2 2 2 2 2 
2 2 2 2 2 2 2 2 2 
2 2 2 2 2 2 2 2 2 
2 2 2 2 2 2 2 2 2 
2 2 2 2 2 2 2 2 2 
2 2 2 2 2 2 2 2 2 
2 2 2 2 2 2 2 2 2 
2 2 2 2 2 2 2 2 2 
2 2 2 2 2 2 2 2 2 
2 2 2 2 2 2 2 2 2 
2 2 2 2 2 2 2 2 
FIELD FieldData 1
Colors 3 1700 unsigned_char
153 0 153 153 0 153 153 0 153 
153 0 153 153 0 153 153 0 153 
153 0 153 153 0 153 153 0 153 
153 0 153 153 0 153 153 0 153 
153 0 153 153 0 153 153 0 153 
153 0 153 153 0 153 153 0 153 
153 0 153 153 0 153 153 0 153 
153 0 153 153 0 153 153 0 153 
153 0 153 153 0 153 153 0 153 
153 0 153 153 0 153 153 0 153 
153 0 153 153 0 153 153 0 153 
153 0 153 153 0 153 153 0 153 
153 0 153 153 0 153 153 0 153 
153 0 153 153 0 153 153 0 153 
153 0 153 153 0 153 153 0 153 
153 0 153 153 0 153 153 0 153 
153 0 153 153 0 153 153 0 153 
153 0 153 153 0 153 153 0 153 
153 0 153 153 0 153 153 0 153 
153 0 153 153 0 153 153 0 153 
153 0 153 153 0 153 153 0 153 
153 0 153 153 0 153 153 0 153 
153 0 153 153 0 153 153 0 153 
153 0 153 153 0 153 153 0 153 
153 0 153 153 0 153 153 0 153 
153 0 153 153 0 153 153 0 153 
153 0 153 153 0 153 153 0 153 
153 0 153 153 0 153 153 0 153 
153 0 153 153 0 153 153 0 153 
153 0 153 153 0 153 153 0 153 
153 0 153 153 0 153 153 0 153 
153 0 153 153 0 153 153 0 153 
153 0 153 153 0 153 153 0 153 
153 0 153 153 0 153 153 0 153 
153 0 153 153 0 153 153 0 153 
153 0 153 153 0 153 153 0 153 
153 0 153 153 0 153 153 0 153 
153 0 153 153 0 153 153 0 153 
153 0 153 153 0 153 153 0 153 
153 0 153 153 0 153 153 0 153 
153 0 153 153 0 153 153 0 153 
153 0 153 153 0 153 153 0 153 
153 0 153 153 0 153 153 0 153 
153 0 153 153 0 153 153 0 153 
153 0 153 153 0 153 153 0 153 
153 0 153 153 0 153 153 0 153 
153 0 153 153 0 153 153 0 153 
153 0 153 153 0 153 153 0 153 
153 0 153 153 0 153 153 0 153 
153 0 153 153 0 153 153 0 153 
153 0 153 153 0 153 153 0 153 
153 0 153 153 0 153 153 0 153 
153 0 153 153 0 153 153 0 153 
153 0 153 153 0 153 153 0 153 
153 0 153 153 0 153 153 0 153 
153 0 153 153 0 153 153 0 153 
153 0 153 153 0 153 153 0 153 
153 0 153 153 0 153 153 0 153 
153 0 153 153 0 153 153 0 153 
153 0 153 153 0 153 153 0 153 
153 0 153 153 0 153 153 0 153 
153 0 153 153 0 153 153 0 153 
153 0 153 153 0 153 153 0 153 
153 0 153 153 0 153 153 0 153 
153 0 153 153 0 153 153 0 153 
153 0 153 153 0 153 153 0 153 
153 0 153 153 0 153 153 0 153 
153 0 153 153 0 153 153 0 153 
153 0 153 153 0 153 153 0 153 
153 0 153 153 0 153 153 0 153 
153 0 153 153 0 153 153 0 153 
153 0 153 153 0 153 153 0 153 
153 0 153 153 0 153 153 0 153 
153 0 153 153 0 153 153 0 153 
153 0 153 153 0 153 153 0 153 
153 0 153 153 0 153 153 0 153 
153 0 153 153 0 153 153 0 153 
153 0 153 153 0 153 153 0 153 
153 0 153 153 0 153 153 0 153 
153 0 153 153 0 153 153 0 153 
153 0 153 153 0 153 153 0 153 
153 0 153 153 0 153 153 0 153 
153 0 153 153 0 153 153 0 153 
153 0 153 153 0 153 153 0 153 
153 0 153 153 0 153 153 0 153 
153 0 153 153 0 153 153 0 153 
153 0 153 153 0 153 153 0 153 
153 0 153 153 0 153 153 0 153 
153 0 153 153 0 153 153 0 153 
153 0 153 153 0 153 153 0 153 
153 0 153 153 0 153 153 0 153 
153 0 153 153 0 153 153 0 153 
153 0 153 153 0 153 153 0 153 
153 0 153 153 0 153 153 0 153 
153 0 153 153 0 153 153 0 153 
153 0 153 153 0 153 153 0 153 
153 0 153 153 0 153 153 0 153 
153 0 153 153 0 153 153 0 153 
153 0 153 153 0 153 153 0 153 
153 0 153 153 0 153 153 0 153 
153 0 153 153 0 153 153 0 153 
153 0 153 153 0 153 153 0 153 
153 0 153 153 0 153 153 0 153 
153 0 153 153 0 153 153 0 153 
153 0 153 153 0 153 153 0 153 
153 0 153 153 0 153 153 0 153 
153 0 153 153 0 153 153 0 153 
153 0 153 153 0 153 153 0 153 
153 0 153 153 0 153 153 0 153 
153 0 153 153 0 153 153 0 153 
153 0 153 153 0 153 153 0 153 
153 0 153 153 0 153 153 0 153 
153 0 153 153 0 153 153 0 153 
153 0 153 153 0 153 153 0 153 
153 0 153 153 0 153 153 0 153 
153 0 153 153 0 153 153 0 153 
153 0 153 153 0 153 153 0 153 
153 0 153 153 0 153 153 0 153 
153 0 153 153 0 153 153 0 153 
153 0 153 153 0 153 153 0 153 
153 0 153 153 0 153 153 0 153 
153 0 153 153 0 153 153 0 153 
153 0 153 153 0 153 153 0 153 
153 0 153 153 0 153 153 0 153 
153 0 153 153 0 153 153 0 153 
153 0 153 153 0 153 153 0 153 
153 0 153 153 0 153 153 0 153 
153 0 153 153 0 153 153 0 153 
153 0 153 153 0 153 153 0 153 
153 0 153 153 0 153 153 0 153 
153 0 153 153 0 153 153 0 153 
153 0 153 153 0 153 153 0 153 
153 0 153 153 0 153 153 0 153 
153 0 153 153 0 153 153 0 153 
153 0 153 153 0 153 153 0 153 
153 0 153 153 0 153 153 0 153 
153 0 153 153 0 153 153 0 153 
153 0 153 153 0 153 153 0 153 
153 0 153 153 0 153 153 0 153 
153 0 153 153 0 153 153 0 153 
153 0 153 153 0 153 153 0 153 
153 0 153 153 0 153 153 0 153 
153 0 153 153 0 153 153 0 153 
153 0 153 153 0 153 153 0 153 
153 0 153 153 0 153 153 0 153 
153 0 153 153 0 153 153 0 153 
153 0 153 153 0 153 153 0 153 
153 0 153 153 0 153 153 0 153 
153 0 153 153 0 153 153 0 153 
153 0 153 153 0 153 153 0 153 
153 0 153 153 0 153 153 0 153 
153 0 153 153 0 153 153 0 153 
153 0 153 153 0 153 153 0 153 
153 0 153 153 0 153 153 0 153 
153 0 153 153 0 153 153 0 153 
153 0 153 153 0 153 153 0 153 
153 0 153 153 0 153 153 0 153 
153 0 153 153 0 153 153 0 153 
153 0 153 153 0 153 153 0 153 
153 0 153 153 0 153 153 0 153 
153 0 153 153 0 153 153 0 153 
153 0 153 153 0 153 153 0 153 
153 0 153 153 0 153 153 0 153 
153 0 153 153 0 153 153 0 153 
153 0 153 153 0 153 153 0 153 
153 0 153 153 0 153 153 0 153 
153 0 153 153 0 153 153 0 153 
153 0 153 153 0 153 153 0 153 
153 0 153 153 0 153 153 0 153 
153 0 153 153 0 153 153 0 153 
153 0 153 153 0 153 153 0 153 
153 0 153 153 0 153 153 0 153 
153 0 153 153 0 153 153 0 153 
153 0 153 153 0 153 153 0 153 
153 0 153 153 0 153 153 0 153 
153 0 153 153 0 153 153 0 153 
153 0 153 153 0 153 153 0 153 
153 0 153 153 0 153 153 0 153 
153 0 153 153 0 153 153 0 153 
153 0 153 153 0 153 153 0 153 
153 0 153 153 0 153 153 0 153 
153 0 153 153 0 153 153 0 153 
153 0 153 153 0 153 153 0 153 
153 0 153 153 0 153 153 0 153 
153 0 153 153 0 153 153 0 153 
153 0 153 153 0 153 153 0 153 
153 0 153 153 0 153 153 0 153 
153 0 153 153 0 153 153 0 153 
153 0 153 153 0 153 153 0 153 
153 0 153 153 0 153 153 0 153 
153 0 153 153 0 153 153 0 153 
153 0 153 153 0 153 153 0 153 
153 0 153 153 0 153 153 0 153 
153 0 153 153 0 153 153 0 153 
153 0 153 153 0 153 153 0 153 
153 0 153 153 0 153 153 0 153 
153 0 153 153 0 153 153 0 153 
153 0 153 153 0 153 153 0 153 
153 0 153 153 0 153 153 0 153 
153 0 153 153 0 153 153 0 153 
153 0 153 153 0 153 153 0 153 
153 0 153 153 0 153 153 0 153 
153 0 153 153 0 153 153 0 153 
153 0 153 153 0 153 153 0 153 
153 0 153 153 0 153 153 0 153 
153 0 153 153 0 153 153 0 153 
153 0 153 153 0 153 153 0 153 
153 0 153 153 0 153 153 0 153 
153 0 153 153 0 153 153 0 153 
153 0 153 153 0 153 153 0 153 
153 0 153 153 0 153 153 0 153 
153 0 153 153 0 153 153 0 153 
153 0 153 153 0 153 153 0 153 
153 0 153 153 0 153 153 0 153 
153 0 153 153 0 153 153 0 153 
153 0 153 153 0 153 153 0 153 
153 0 153 153 0 153 153 0 153 
153 0 153 153 0 153 153 0 153 
153 0 153 153 0 153 153 0 153 
153 0 153 153 0 153 153 0 153 
153 0 153 153 0 153 153 0 153 
153 0 153 153 0 153 153 0 153 
153 0 153 153 0 153 153 0 153 
153 0 153 153 0 153 153 0 153 
153 0 153 153 0 153 153 0 153 
153 0 153 153 0 153 153 0 153 
153 0 153 153 0 153 153 0 153 
153 0 153 153 0 153 153 0 153 
153 0 153 153 0 153 153 0 153 
153 0 153 153 0 153 153 0 153 
153 0 153 153 0 153 153 0 153 
153 0 153 153 0 153 153 0 153 
153 0 153 153 0 153 153 0 153 
153 0 153 153 0 153 153 0 153 
153 0 153 153 0 153 153 0 153 
153 0 153 153 0 153 153 0 153 
153 0 153 153 0 153 153 0 153 
153 0 153 153 0 153 153 0 153 
153 0 153 153 0 153 153 0 153 
153 0 153 153 0 153 153 0 153 
153 0 153 153 0 153 153 0 153 
153 0 153 153 0 153 153 0 153 
153 0 153 153 0 153 153 0 153 
153 0 153 153 0 153 153 0 153 
153 0 153 153 0 153 153 0 153 
153 0 153 153 0 153 153 0 153 
153 0 153 153 0 153 153 0 153 
153 0 153 153 0 153 153 0 153 
153 0 153 153 0 153 153 0 153 
153 0 153 153 0 153 153 0 153 
153 0 153 153 0 153 153 0 153 
153 0 153 153 0 153 153 0 153 
153 0 153 153 0 153 153 0 153 
153 0 153 153 0 153 153 0 153 
153 0 153 153 0 153 153 0 153 
153 0 153 153 0 153 153 0 153 
153 0 153 153 0 153 153 0 153 
153 0 153 153 0 153 153 0 153 
153 0 153 153 0 153 153 0 153 
153 0 153 153 0 153 153 0 153 
153 0 153 153 0 153 153 0 153 
153 0 153 153 0 153 153 0 153 
153 0 153 153 0 153 153 0 153 
153 0 153 153 0 153 153 0 153 
153 0 153 153 0 153 153 0 153 
153 0 153 153 0 153 153 0 153 
153 0 153 153 0 153 153 0 153 
153 0 153 153 0 153 153 0 153 
153 0 153 153 0 153 153 0 153 
153 0 153 153 0 153 153 0 153 
153 0 153 153 0 153 153 0 153 
153 0 153 153 0 153 153 0 153 
153 0 153 153 0 153 153 0 153 
153 0 153 153 0 153 153 0 153 
153 0 153 153 0 153 153 0 153 
153 0 153 153 0 153 153 0 153 
153 0 153 153 0 153 153 0 153 
153 0 153 153 0 153 153 0 153 
153 0 153 153 0 153 153 0 153 
153 0 153 153 0 153 153 0 153 
153 0 153 153 0 153 153 0 153 
153 0 153 153 0 153 153 0 153 
153 0 153 153 0 153 153 0 153 
153 0 153 153 0 153 153 0 153 
153 0 153 153 0 153 153 0 153 
153 0 153 153 0 153 153 0 153 
153 0 153 153 0 153 153 0 153 
153 0 153 153 0 153 153 0 153 
153 0 153 153 0 153 153 0 153 
153 0 153 153 0 153 153 0 153 
153 0 153 153 0 153 153 0 153 
153 0 153 153 0 153 153 0 153 
153 0 153 153 0 153 153 0 153 
153 0 153 153 0 153 153 0 153 
153 0 153 153 0 153 153 0 153 
153 0 153 153 0 153 153 0 153 
153 0 153 153 0 153 153 0 153 
153 0 153 153 0 153 153 0 153 
153 0 153 153 0 153 153 0 153 
153 0 153 153 0 153 153 0 153 
153 0 153 153 0 153 153 0 153 
153 0 153 153 0 153 153 0 153 
153 0 153 153 0 153 153 0 153 
153 0 153 153 0 153 153 0 153 
153 0 153 153 0 153 153 0 153 
153 0 153 153 0 153 153 0 153 
153 0 153 153 0 153 153 0 153 
153 0 153 153 0 153 153 0 153 
153 0 153 153 0 153 153 0 153 
153 0 153 153 0 153 153 0 153 
153 0 153 153 0 153 153 0 153 
153 0 153 153 0 153 153 0 153 
153 0 153 153 0 153 153 0 153 
153 0 153 153 0 153 153 0 153 
153 0 153 153 0 153 153 0 153 
153 0 153 153 0 153 153 0 153 
153 0 153 153 0 153 153 0 153 
153 0 153 153 0 153 153 0 153 
153 0 153 153 0 153 153 0 153 
153 0 153 153 0 153 153 0 153 
153 0 153 153 0 153 153 0 153 
153 0 153 153 0 153 153 0 153 
153 0 153 153 0 153 153 0 153 
153 0 153 153 0 153 153 0 153 
153 0 153 153 0 153 153 0 153 
153 0 153 153 0 153 153 0 153 
153 0 153 153 0 153 153 0 153 
153 0 153 153 0 153 153 0 153 
153 0 153 153 0 153 153 0 153 
153 0 153 153 0 153 153 0 153 
153 0 153 153 0 153 153 0 153 
153 0 153 153 0 153 153 0 153 
153 0 153 153 0 153 153 0 153 
153 0 153 153 0 153 153 0 153 
153 0 153 153 0 153 153 0 153 
153 0 153 153 0 153 153 0 153 
153 0 153 153 0 153 153 0 153 
153 0 153 153 0 153 153 0 153 
153 0 153 153 0 153 153 0 153 
153 0 153 153 0 153 153 0 153 
153 0 153 153 0 153 153 0 153 
153 0 153 153 0 153 153 0 153 
153 0 153 153 0 153 153 0 153 
153 0 153 153 0 153 153 0 153 
153 0 153 153 0 153 153 0 153 
153 0 153 153 0 153 153 0 153 
153 0 153 153 0 153 153 0 153 
153 0 153 153 0 153 153 0 153 
153 0 153 153 0 153 153 0 153 
153 0 153 153 0 153 153 0 153 
153 0 153 153 0 153 153 0 153 
153 0 153 153 0 153 153 0 153 
153 0 153 153 0 153 153 0 153 
153 0 153 153 0 153 153 0 153 
153 0 153 153 0 153 153 0 153 
153 0 153 153 0 153 153 0 153 
153 0 153 153 0 153 153 0 153 
153 0 153 153 0 153 153 0 153 
153 0 153 153 0 153 153 0 153 
153 0 153 153 0 153 153 0 153 
153 0 153 153 0 153 153 0 153 
153 0 153 153 0 153 153 0 153 
153 0 153 153 0 153 153 0 153 
153 0 153 153 0 153 153 0 153 
153 0 153 153 0 153 153 0 153 
153 0 153 153 0 153 153 0 153 
153 0 153 153 0 153 153 0 153 
153 0 153 153 0 153 153 0 153 
153 0 153 153 0 153 153 0 153 
153 0 153 153 0 153 153 0 153 
153 0 153 153 0 153 153 0 153 
153 0 153 153 0 153 153 0 153 
153 0 153 153 0 153 153 0 153 
153 0 153 153 0 153 153 0 153 
153 0 153 153 0 153 153 0 153 
153 0 153 153 0 153 153 0 153 
153 0 153 153 0 153 153 0 153 
153 0 153 153 0 153 153 0 153 
153 0 153 153 0 153 153 0 153 
153 0 153 153 0 153 153 0 153 
153 0 153 153 0 153 153 0 153 
153 0 153 153 0 153 153 0 153 
153 0 153 153 0 153 153 0 153 
153 0 153 153 0 153 153 0 153 
153 0 153 153 0 153 153 0 153 
153 0 153 153 0 153 153 0 153 
153 0 153 153 0 153 153 0 153 
153 0 153 153 0 153 153 0 153 
153 0 153 153 0 153 153 0 153 
153 0 153 153 0 153 153 0 153 
153 0 153 153 0 153 153 0 153 
153 0 153 153 0 153 153 0 153 
153 0 153 153 0 153 153 0 153 
153 0 153 153 0 153 153 0 153 
153 0 153 153 0 153 153 0 153 
153 0 153 153 0 153 153 0 153 
153 0 153 153 0 153 153 0 153 
153 0 153 153 0 153 153 0 153 
153 0 153 153 0 153 153 0 153 
153 0 153 153 0 153 153 0 153 
153 0 153 153 0 153 153 0 153 
153 0 153 153 0 153 153 0 153 
153 0 153 153 0 153 153 0 153 
153 0 153 153 0 153 153 0 153 
153 0 153 153 0 153 153 0 153 
153 0 153 153 0 153 153 0 153 
153 0 153 153 0 153 153 0 153 
153 0 153 153 0 153 153 0 153 
153 0 153 153 0 153 153 0 153 
153 0 153 153 0 153 153 0 153 
153 0 153 153 0 153 153 0 153 
153 0 153 153 0 153 153 0 153 
153 0 153 153 0 153 153 0 153 
153 0 153 153 0 153 153 0 153 
153 0 153 153 0 153 153 0 153 
153 0 153 153 0 153 153 0 153 
153 0 153 153 0 153 153 0 153 
153 0 153 153 0 153 153 0 153 
153 0 153 153 0 153 153 0 153 
153 0 153 153 0 153 153 0 153 
153 0 153 153 0 153 153 0 153 
153 0 153 153 0 153 153 0 153 
153 0 153 153 0 153 153 0 153 
153 0 153 153 0 153 153 0 153 
153 0 153 153 0 153 153 0 153 
153 0 153 153 0 153 153 0 153 
153 0 153 153 0 153 153 0 153 
153 0 153 153 0 153 153 0 153 
153 0 153 153 0 153 153 0 153 
153 0 153 153 0 153 153 0 153 
153 0 153 153 0 153 153 0 153 
153 0 153 153 0 153 153 0 153 
153 0 153 153 0 153 153 0 153 
153 0 153 153 0 153 153 0 153 
153 0 153 153 0 153 153 0 153 
153 0 153 153 0 153 153 0 153 
153 0 153 153 0 153 153 0 153 
153 0 153 153 0 153 153 0 153 
153 0 153 153 0 153 153 0 153 
153 0 153 153 0 153 153 0 153 
153 0 153 153 0 153 153 0 153 
153 0 153 153 0 153 153 0 153 
153 0 153 153 0 153 153 0 153 
153 0 153 153 0 153 153 0 153 
153 0 153 153 0 153 153 0 153 
153 0 153 153 0 153 153 0 153 
153 0 153 153 0 153 153 0 153 
153 0 153 153 0 153 153 0 153 
153 0 153 153 0 153 153 0 153 
153 0 153 153 0 153 153 0 153 
153 0 153 153 0 153 153 0 153 
153 0 153 153 0 153 153 0 153 
153 0 153 153 0 153 153 0 153 
153 0 153 153 0 153 153 0 153 
153 0 153 153 0 153 153 0 153 
153 0 153 153 0 153 153 0 153 
153 0 153 153 0 153 153 0 153 
153 0 153 153 0 153 153 0 153 
153 0 153 153 0 153 153 0 153 
153 0 153 153 0 153 153 0 153 
153 0 153 153 0 153 153 0 153 
153 0 153 153 0 153 153 0 153 
153 0 153 153 0 153 153 0 153 
153 0 153 153 0 153 153 0 153 
153 0 153 153 0 153 153 0 153 
153 0 153 153 0 153 153 0 153 
153 0 153 153 0 153 153 0 153 
153 0 153 153 0 153 153 0 153 
153 0 153 153 0 153 153 0 153 
153 0 153 153 0 153 153 0 153 
153 0 153 153 0 153 153 0 153 
153 0 153 153 0 153 153 0 153 
153 0 153 153 0 153 153 0 153 
153 0 153 153 0 153 153 0 153 
153 0 153 153 0 153 153 0 153 
153 0 153 153 0 153 153 0 153 
153 0 153 153 0 153 153 0 153 
153 0 153 153 0 153 153 0 153 
153 0 153 153 0 153 153 0 153 
153 0 153 153 0 153 153 0 153 
153 0 153 153 0 153 153 0 153 
153 0 153 153 0 153 153 0 153 
153 0 153 153 0 153 153 0 153 
153 0 153 153 0 153 153 0 153 
153 0 153 153 0 153 153 0 153 
153 0 153 153 0 153 153 0 153 
153 0 153 153 0 153 153 0 153 
153 0 153 153 0 153 153 0 153 
153 0 153 153 0 153 153 0 153 
153 0 153 153 0 153 153 0 153 
153 0 153 153 0 153 153 0 153 
153 0 153 153 0 153 153 0 153 
153 0 153 153 0 153 153 0 153 
153 0 153 153 0 153 153 0 153 
153 0 153 153 0 153 153 0 153 
153 0 153 153 0 153 153 0 153 
153 0 153 153 0 153 153 0 153 
153 0 153 153 0 153 153 0 153 
153 0 153 153 0 153 153 0 153 
153 0 153 153 0 153 153 0 153 
153 0 153 153 0 153 153 0 153 
153 0 153 153 0 153 153 0 153 
153 0 153 153 0 153 153 0 153 
153 0 153 153 0 153 153 0 153 
153 0 153 153 0 153 153 0 153 
153 0 153 153 0 153 153 0 153 
153 0 153 153 0 153 153 0 153 
153 0 153 153 0 153 153 0 153 
153 0 153 153 0 153 153 0 153 
153 0 153 153 0 153 153 0 153 
153 0 153 153 0 153 153 0 153 
153 0 153 153 0 153 153 0 153 
153 0 153 153 0 153 153 0 153 
153 0 153 153 0 153 153 0 153 
153 0 153 153 0 153 153 0 153 
153 0 153 153 0 153 153 0 153 
153 0 153 153 0 153 153 0 153 
153 0 153 153 0 153 153 0 153 
153 0 153 153 0 153 153 0 153 
153 0 153 153 0 153 153 0 153 
153 0 153 153 0 153 153 0 153 
153 0 153 153 0 153 153 0 153 
153 0 153 153 0 153 153 0 153 
153 0 153 153 0 153 153 0 153 
153 0 153 153 0 153 153 0 153 
153 0 153 153 0 153 153 0 153 