# vtk DataFile Version 3.0
vtk output
ASCII
DATASET POLYDATA
POINTS 1700 float
1124.32 358.648 0 1124.42 358.645 0 1124.51 358.636 0 
1124.6 358.621 0 1124.7 358.601 0 1124.79 358.574 0 
1124.88 358.542 0 1124.96 358.505 0 1125.05 358.462 0 
1125.13 358.414 0 1125.21 358.361 0 1125.28 358.303 0 
1125.35 358.241 0 1125.42 358.175 0 1125.48 358.104 0 
1125.54 358.029 0 1125.59 357.951 0 1125.64 357.87 0 
1125.68 357.786 0 1125.72 357.7 0 1125.75 357.611 0 
1125.78 357.521 0 1125.8 357.429 0 1125.81 357.336 0 
1125.82 357.242 0 1125.82 357.148 0 1125.82 357.054 0 
1125.81 356.96 0 1125.8 356.867 0 1125.78 356.775 0 
1125.75 356.684 0 1125.72 356.596 0 1125.68 356.509 0 
1125.64 356.425 0 1125.59 356.344 0 1125.54 356.266 0 
1125.48 356.192 0 1125.42 356.121 0 1125.35 356.054 0 
1125.28 355.992 0 1125.21 355.934 0 1125.13 355.881 0 
1125.05 355.833 0 1124.96 355.79 0 1124.88 355.753 0 
1124.79 355.721 0 1124.7 355.695 0 1124.6 355.674 0 
1124.51 355.66 0 1124.42 355.651 0 1124.32 355.648 0 
1124.23 355.651 0 1124.14 355.66 0 1124.04 355.674 0 
1123.95 355.695 0 1123.86 355.721 0 1123.77 355.753 0 
1123.68 355.79 0 1123.6 355.833 0 1123.52 355.881 0 
1123.44 355.934 0 1123.37 355.992 0 1123.3 356.054 0 
1123.23 356.121 0 1123.17 356.192 0 1123.11 356.266 0 
1123.06 356.344 0 1123.01 356.425 0 1122.97 356.509 0 
1122.93 356.596 0 1122.9 356.684 0 1122.87 356.775 0 
1122.85 356.867 0 1122.84 356.96 0 1122.83 357.054 0 
1122.82 357.148 0 1122.83 357.242 0 1122.84 357.336 0 
1122.85 357.429 0 1122.87 357.521 0 1122.9 357.611 0 
1122.93 357.7 0 1122.97 357.786 0 1123.01 357.87 0 
1123.06 357.951 0 1123.11 358.029 0 1123.17 358.104 0 
1123.23 358.175 0 1123.3 358.241 0 1123.37 358.303 0 
1123.44 358.361 0 1123.52 358.414 0 1123.6 358.462 0 
1123.68 358.505 0 1123.77 358.542 0 1123.86 358.574 0 
1123.95 358.601 0 1124.04 358.621 0 1124.14 358.636 0 
1124.23 358.645 0 1082.06 347.27 0 1082.16 347.267 0 
1082.25 347.258 0 1082.34 347.243 0 1082.44 347.223 0 
1082.53 347.196 0 1082.62 347.164 0 1082.7 347.127 0 
1082.79 347.084 0 1082.87 347.036 0 1082.95 346.983 0 
1083.02 346.925 0 1083.09 346.863 0 1083.16 346.796 0 
1083.22 346.726 0 1083.28 346.651 0 1083.33 346.573 0 
1083.38 346.492 0 1083.42 346.408 0 1083.46 346.322 0 
1083.49 346.233 0 1083.52 346.143 0 1083.54 346.051 0 
1083.55 345.958 0 1083.56 345.864 0 1083.56 345.77 0 
1083.56 345.675 0 1083.55 345.582 0 1083.54 345.489 0 
1083.52 345.397 0 1083.49 345.306 0 1083.46 345.217 0 
1083.42 345.131 0 1083.38 345.047 0 1083.33 344.966 0 
1083.28 344.888 0 1083.22 344.813 0 1083.16 344.743 0 
1083.09 344.676 0 1083.02 344.614 0 1082.95 344.556 0 
1082.87 344.503 0 1082.79 344.455 0 1082.7 344.412 0 
1082.62 344.375 0 1082.53 344.343 0 1082.44 344.317 0 
1082.34 344.296 0 1082.25 344.281 0 1082.16 344.273 0 
1082.06 344.27 0 1081.97 344.273 0 1081.88 344.281 0 
1081.78 344.296 0 1081.69 344.317 0 1081.6 344.343 0 
1081.51 344.375 0 1081.43 344.412 0 1081.34 344.455 0 
1081.26 344.503 0 1081.18 344.556 0 1081.11 344.614 0 
1081.04 344.676 0 1080.97 344.743 0 1080.91 344.813 0 
1080.85 344.888 0 1080.8 344.966 0 1080.75 345.047 0 
1080.71 345.131 0 1080.67 345.217 0 1080.64 345.306 0 
1080.61 345.397 0 1080.59 345.489 0 1080.58 345.582 0 
1080.57 345.675 0 1080.56 345.77 0 1080.57 345.864 0 
1080.58 345.958 0 1080.59 346.051 0 1080.61 346.143 0 
1080.64 346.233 0 1080.67 346.322 0 1080.71 346.408 0 
1080.75 346.492 0 1080.8 346.573 0 1080.85 346.651 0 
1080.91 346.726 0 1080.97 346.796 0 1081.04 346.863 0 
1081.11 346.925 0 1081.18 346.983 0 1081.26 347.036 0 
1081.34 347.084 0 1081.43 347.127 0 1081.51 347.164 0 
1081.6 347.196 0 1081.69 347.223 0 1081.78 347.243 0 
1081.88 347.258 0 1081.97 347.267 0 179.628 413.452 0 
179.722 413.449 0 179.816 413.44 0 179.909 413.426 0 
180.001 413.405 0 180.091 413.379 0 180.18 413.347 0 
180.267 413.309 0 180.35 413.267 0 180.432 413.219 0 
180.51 413.166 0 180.584 413.108 0 180.655 413.046 0 
180.721 412.979 0 180.784 412.908 0 180.841 412.834 0 
180.894 412.756 0 180.942 412.675 0 180.985 412.591 0 
181.023 412.504 0 181.054 412.416 0 181.081 412.325 0 
181.101 412.233 0 181.116 412.14 0 181.125 412.046 0 
181.128 411.952 0 181.125 411.858 0 181.116 411.764 0 
181.101 411.671 0 181.081 411.579 0 181.054 411.489 0 
181.023 411.4 0 180.985 411.314 0 180.942 411.23 0 
180.894 411.148 0 180.841 411.071 0 180.784 410.996 0 
180.721 410.925 0 180.655 410.859 0 180.584 410.796 0 
180.51 410.739 0 180.432 410.686 0 180.35 410.638 0 
180.267 410.595 0 180.18 410.558 0 180.091 410.526 0 
180.001 410.499 0 179.909 410.479 0 179.816 410.464 0 
179.722 410.455 0 179.628 410.452 0 179.534 410.455 0 
179.44 410.464 0 179.347 410.479 0 179.255 410.499 0 
179.164 410.526 0 179.076 410.558 0 178.989 410.595 0 
178.905 410.638 0 178.824 410.686 0 178.746 410.739 0 
178.672 410.796 0 178.601 410.859 0 178.534 410.925 0 
178.472 410.996 0 178.414 411.071 0 178.361 411.148 0 
178.313 411.23 0 178.271 411.314 0 178.233 411.4 0 
178.201 411.489 0 178.175 411.579 0 178.154 411.671 0 
178.14 411.764 0 178.131 411.858 0 178.128 411.952 0 
178.131 412.046 0 178.14 412.14 0 178.154 412.233 0 
178.175 412.325 0 178.201 412.416 0 178.233 412.504 0 
178.271 412.591 0 178.313 412.675 0 178.361 412.756 0 
178.414 412.834 0 178.472 412.908 0 178.534 412.979 0 
178.601 413.046 0 178.672 413.108 0 178.746 413.166 0 
178.824 413.219 0 178.905 413.267 0 178.989 413.309 0 
179.076 413.347 0 179.164 413.379 0 179.255 413.405 0 
179.347 413.426 0 179.44 413.44 0 179.534 413.449 0 
372.352 246.848 0 372.446 246.845 0 372.54 246.836 0 
372.633 246.821 0 372.725 246.801 0 372.815 246.774 0 
372.904 246.742 0 372.99 246.705 0 373.074 246.662 0 
373.155 246.614 0 373.233 246.561 0 373.308 246.504 0 
373.378 246.441 0 373.445 246.375 0 373.507 246.304 0 
373.565 246.229 0 373.618 246.152 0 373.666 246.07 0 
373.709 245.986 0 373.746 245.9 0 373.778 245.811 0 
373.804 245.721 0 373.825 245.629 0 373.84 245.536 0 
373.849 245.442 0 373.852 245.348 0 373.849 245.254 0 
373.84 245.16 0 373.825 245.067 0 373.804 244.975 0 
373.778 244.884 0 373.746 244.796 0 373.709 244.709 0 
373.666 244.625 0 373.618 244.544 0 373.565 244.466 0 
373.507 244.392 0 373.445 244.321 0 373.378 244.254 0 
373.308 244.192 0 373.233 244.134 0 373.155 244.081 0 
373.074 244.033 0 372.99 243.991 0 372.904 243.953 0 
372.815 243.921 0 372.725 243.895 0 372.633 243.874 0 
372.54 243.86 0 372.446 243.851 0 372.352 243.848 0 
372.257 243.851 0 372.164 243.86 0 372.07 243.874 0 
371.979 243.895 0 371.888 243.921 0 371.799 243.953 0 
371.713 243.991 0 371.629 244.033 0 371.548 244.081 0 
371.47 244.134 0 371.395 244.192 0 371.325 244.254 0 
371.258 244.321 0 371.196 244.392 0 371.138 244.466 0 
371.085 244.544 0 371.037 244.625 0 370.994 244.709 0 
370.957 244.796 0 370.925 244.884 0 370.899 244.975 0 
370.878 245.067 0 370.863 245.16 0 370.855 245.254 0 
370.852 245.348 0 370.855 245.442 0 370.863 245.536 0 
370.878 245.629 0 370.899 245.721 0 370.925 245.811 0 
370.957 245.9 0 370.994 245.986 0 371.037 246.07 0 
371.085 246.152 0 371.138 246.229 0 371.196 246.304 0 
371.258 246.375 0 371.325 246.441 0 371.395 246.504 0 
371.47 246.561 0 371.548 246.614 0 371.629 246.662 0 
371.713 246.705 0 371.799 246.742 0 371.888 246.774 0 
371.979 246.801 0 372.07 246.821 0 372.164 246.836 0 
372.257 246.845 0 313.543 456.399 0 313.637 456.396 0 
313.731 456.387 0 313.824 456.372 0 313.916 456.352 0 
314.006 456.325 0 314.095 456.293 0 314.181 456.256 0 
314.265 456.213 0 314.347 456.165 0 314.424 456.112 0 
314.499 456.054 0 314.57 455.992 0 314.636 455.925 0 
314.699 455.855 0 314.756 455.78 0 314.809 455.702 0 
314.857 455.621 0 314.9 455.537 0 314.937 455.451 0 
314.969 455.362 0 314.996 455.272 0 315.016 455.18 0 
315.031 455.087 0 315.04 454.993 0 315.043 454.899 0 
315.04 454.804 0 315.031 454.711 0 315.016 454.618 0 
314.996 454.526 0 314.969 454.435 0 314.937 454.346 0 
314.9 454.26 0 314.857 454.176 0 314.809 454.095 0 
314.756 454.017 0 314.699 453.943 0 314.636 453.872 0 
314.57 453.805 0 314.499 453.743 0 314.424 453.685 0 
314.347 453.632 0 314.265 453.584 0 314.181 453.541 0 
314.095 453.504 0 314.006 453.472 0 313.916 453.446 0 
313.824 453.425 0 313.731 453.41 0 313.637 453.402 0 
313.543 453.399 0 313.449 453.402 0 313.355 453.41 0 
313.262 453.425 0 313.17 453.446 0 313.079 453.472 0 
312.991 453.504 0 312.904 453.541 0 312.82 453.584 0 
312.739 453.632 0 312.661 453.685 0 312.587 453.743 0 
312.516 453.805 0 312.449 453.872 0 312.387 453.943 0 
312.329 454.017 0 312.276 454.095 0 312.228 454.176 0 
312.186 454.26 0 312.148 454.346 0 312.116 454.435 0 
312.09 454.526 0 312.069 454.618 0 312.055 454.711 0 
312.046 454.804 0 312.043 454.899 0 312.046 454.993 0 
312.055 455.087 0 312.069 455.18 0 312.09 455.272 0 
312.116 455.362 0 312.148 455.451 0 312.186 455.537 0 
312.228 455.621 0 312.276 455.702 0 312.329 455.78 0 
312.387 455.855 0 312.449 455.925 0 312.516 455.992 0 
312.587 456.054 0 312.661 456.112 0 312.739 456.165 0 
312.82 456.213 0 312.904 456.256 0 312.991 456.293 0 
313.079 456.325 0 313.17 456.352 0 313.262 456.372 0 
313.355 456.387 0 313.449 456.396 0 551.011 165.484 0 
551.105 165.481 0 551.199 165.472 0 551.292 165.457 0 
551.384 165.437 0 551.475 165.41 0 551.563 165.379 0 
551.65 165.341 0 551.734 165.298 0 551.815 165.25 0 
551.893 165.197 0 551.967 165.14 0 552.038 165.077 0 
552.105 165.011 0 552.167 164.94 0 552.225 164.866 0 
552.278 164.788 0 552.326 164.707 0 552.368 164.623 0 
552.406 164.536 0 552.438 164.447 0 552.464 164.357 0 
552.485 164.265 0 552.499 164.172 0 552.508 164.078 0 
552.511 163.984 0 552.508 163.89 0 552.499 163.796 0 
552.485 163.703 0 552.464 163.611 0 552.438 163.52 0 
552.406 163.432 0 552.368 163.345 0 552.326 163.261 0 
552.278 163.18 0 552.225 163.102 0 552.167 163.028 0 
552.105 162.957 0 552.038 162.89 0 551.967 162.828 0 
551.893 162.77 0 551.815 162.717 0 551.734 162.669 0 
551.65 162.627 0 551.563 162.589 0 551.475 162.557 0 
[...]
POINT_DATA 1700
SCALARS scales float
LOOKUP_TABLE default
3 3 3 3 3 3 3 3 3 
3 3 3 3 3 3 3 3 3 
3 3 3 3 3 3 3 3 3 
3 3 3 3 3 3 3 3 3 
3 3 3 3 3 3 3 3 3 
3 3 3 3 3 3 3 3 3 
3 3 3 3 3 3 3 3 3 
3 3 3 3 3 3 3 3 3 
3 3 3 3 3 3 3 3 3 
3 3 3 3 3 3 3 3 3 
3 3 3 3 3 3 3 3 3 
3 3 3 3 3 3 3 3 3 
3 3 3 3 3 3 3 3 3 
3 3 3 3 3 3 3 3 3 
3 3 3 3 3 3 3 3 3 
3 3 3 3 3 3 3 3 3 
3 3 3 3 3 3 3 3 3 
3 3 3 3 3 3 3 3 3 
3 3 3 3 3 3 3 3 3 
3 3 3 3 3 3 3 3 3 
3 3 3 3 3 3 3 3 3 
3 3 3 3 3 3 3 3 3 
3 3 3 3 3 3 3 3 3 
3 3 3 3 3 3 3 3 3 
3 3 3 3 3 3 3 3 3 
3 3 3 3 3 3 3 3 3 
3 3 3 3 3 3 3 3 3 
3 3 3 3 3 3 3 3 3 
3 3 3 3 3 3 3 3 3 
3 3 3 3 3 3 3 3 3 
3 3 3 3 3 3 3 3 3 
3 3 3 3 3 3 3 3 3 
3 3 3 3 3 3 3 3 3 
3 3 3 3 3 3 3 3 3 
3 3 3 3 3 3 3 3 3 
3 3 3 3 3 3 3 3 3 
3 3 3 3 3 3 3 3 3 
3 3 3 3 3 3 3 3 3 
3 3 3 3 3 3 3 3 3 
3 3 3 3 3 3 3 3 3 
3 3 3 3 3 3 3 3 3 
3 3 3 3 3 3 3 3 3 
3 3 3 3 3 3 3 3 3 
3 3 3 3 3 3 3 3 3 
3 3 3 3 3 3 3 3 3 
3 3 3 3 3 3 3 3 3 
3 3 3 3 3 3 3 3 3 
3 3 3 3 3 3 3 3 3 
3 3 3 3 3 3 3 3 3 
3 3 3 3 3 3 3 3 3 
3 3 3 3 3 3 3 3 3 
3 3 3 3 3 3 3 3 3 
3 3 3 3 3 3 3 3 3 
3 3 3 3 3 3 3 3 3 
3 3 3 3 3 3 3 3 3 
3 3 3 3 3 3 3 3 3 
3 3 3 3 3 3 3 3 3 
3 3 3 3 3 3 3 3 3 
3 3 3 3 3 3 3 3 3 
3 3 3 3 3 3 3 3 3 
3 3 3 3 3 3 3 3 3 
3 3 3 3 3 3 3 3 3 
3 3 3 3 3 3 3 3 3 
3 3 3 3 3 3 3 3 3 
3 3 3 3 3 3 3 3 3 
3 3 3 3 3 3 3 3 3 
3 3 3 3 3 3 3 3 3 
3 3 3 3 3 3 3 3 3 
3 3 3 3 3 3 3 3 3 
3 3 3 3 3 3 3 3 3 
3 3 3 3 3 3 3 3 3 
3 3 3 3 3 3 3 3 3 
3 3 3 3 3 3 3 3 3 
3 3 3 3 3 3 3 3 3 
3 3 3 3 3 3 3 3 3 
3 3 3 3 3 3 3 3 3 
3 3 3 3 3 3 3 3 3 
3 3 3 3 3 3 3 3 3 
3 3 3 3 3 3 3 3 3 
3 3 3 3 3 3 3 3 3 
3 3 3 3 3 3 3 3 3 
3 3 3 3 3 3 3 3 3 
3 3 3 3 3 3 3 3 3 
3 3 3 3 3 3 3 3 3 
3 3 3 3 3 3 3 3 3 
3 3 3 3 3 3 3 3 3 
3 3 3 3 3 3 3 3 3 
3 3 3 3 3 3 3 3 3 
3 3 3 3 3 3 3 3 3 
3 3 3 3 3 3 3 3 3 
3 3 3 3 3 3 3 3 3 
3 3 3 3 3 3 3 3 3 
3 3 3 3 3 3 3 3 3 
3 3 3 3 3 3 3 3 3 
3 3 3 3 3 3 3 3 3 
3 3 3 3 3 3 3 3 3 
3 3 3 3 3 3 3 3 3 
3 3 3 3 3 3 3 3 3 
3 3 3 3 3 3 3 3 3 
3 3 3 3 3 3 3 3 3 
3 3 3 3 3 3 3 3 3 
3 3 3 3 3 3 3 3 3 
3 3 3 3 3 3 3 3 3 
3 3 3 3 3 3 3 3 3 
3 3 3 3 3 3 3 3 3 
3 3 3 3 3 3 3 3 3 
3 3 3 3 3 3 3 3 3 
3 3 3 3 3 3 3 3 3 
3 3 3 3 3 3 3 3 3 
3 3 3 3 3 3 3 3 3 
3 3 3 3 3 3 3 3 3 
3 3 3 3 3 3 3 3 3 
3 3 3 3 3 3 3 3 3 
3 3 3 3 3 3 3 3 3 
3 3 3 3 3 3 3 3 3 
3 3 3 3 3 3 3 3 3 
3 3 3 3 3 3 3 3 3 
3 3 3 3 3 3 3 3 3 
3 3 3 3 3 3 3 3 3 
3 3 3 3 3 3 3 3 3 
3 3 3 3 3 3 3 3 3 
3 3 3 3 3 3 3 3 3 
3 3 3 3 3 3 3 3 3 
3 3 3 3 3 3 3 3 3 
3 3 3 3 3 3 3 3 3 
3 3 3 3 3 3 3 3 3 
3 3 3 3 3 3 3 3 3 
3 3 3 3 3 3 3 3 3 
3 3 3 3 3 3 3 3 3 
3 3 3 3 3 3 3 3 3 
3 3 3 3 3 3 3 3 3 
3 3 3 3 3 3 3 3 3 
3 3 3 3 3 3 3 3 3 
3 3 3 3 3 3 3 3 3 
3 3 3 3 3 3 3 3 3 
3 3 3 3 3 3 3 3 3 
3 3 3 3 3 3 3 3 3 
3 3 3 3 3 3 3 3 3 
3 3 3 3 3 3 3 3 3 
3 3 3 3 3 3 3 3 3 
3 3 3 3 3 3 3 3 3 
3 3 3 3 3 3 3 3 3 
3 3 3 3 3 3 3 3 3 
3 3 3 3 3 3 3 3 3 
3 3 3 3 3 3 3 3 3 
3 3 3 3 3 3 3 3 3 
3 3 3 3 3 3 3 3 3 
3 3 3 3 3 3 3 3 3 
3 3 3 3 3 3 3 3 3 
3 3 3 3 3 3 3 3 3 
3 3 3 3 3 3 3 3 3 
3 3 3 3 3 3 3 3 3 
3 3 3 3 3 3 3 3 3 
3 3 3 3 3 3 3 3 3 
3 3 3 3 3 3 3 3 3 
3 3 3 3 3 3 3 3 3 
3 3 3 3 3 3 3 3 3 
3 3 3 3 3 3 3 3 3 
3 3 3 3 3 3 3 3 3 
3 3 3 3 3 3 3 3 3 
3 3 3 3 3 3 3 3 3 
3 3 3 3 3 3 3 3 3 
3 3 3 3 3 3 3 3 3 
3 3 3 3 3 3 3 3 3 
3 3 3 3 3 3 3 3 3 
3 3 3 3 3 3 3 3 3 
3 3 3 3 3 3 3 3 3 
3 3 3 3 3 3 3 3 3 
3 3 3 3 3 3 3 3 3 
3 3 3 3 3 3 3 3 3 
3 3 3 3 3 3 3 3 3 
3 3 3 3 3 3 3 3 3 
3 3 3 3 3 3 3 3 3 
3 3 3 3 3 3 3 3 3 
3 3 3 3 3 3 3 3 3 
3 3 3 3 3 3 3 3 3 
3 3 3 3 3 3 3 3 3 
3 3 3 3 3 3 3 3 3 
3 3 3 3 3 3 3 3 3 
3 3 3 3 3 3 3 3 3 
3 3 3 3 3 3 3 3 3 
3 3 3 3 3 3 3 3 3 
3 3 3 3 3 3 3 3 3 
3 3 3 3 3 3 3 3 3 
3 3 3 3 3 3 3 3 3 
3 3 3 3 3 3 3 3 3 
3 3 3 3 3 3 3 3 3 
3 3 3 3 3 3 3 3 3 
3 3 3 3 3 3 3 3 
FIELD FieldData 1
Colors 3 1700 unsigned_char
153 0 153 153 0 153 153 0 153 
153 0 153 153 0 153 153 0 153 
153 0 153 153 0 153 153 0 153 
153 0 153 153 0 153 153 0 153 
153 0 153 153 0 153 153 0 153 
153 0 153 153 0 153 153 0 153 
153 0 153 153 0 153 153 0 153 
153 0 153 153 0 153 153 0 153 
153 0 153 153 0 153 153 0 153 
153 0 153 153 0 153 153 0 153 
153 0 153 153 0 153 153 0 153 
153 0 153 153 0 153 153 0 153 
153 0 153 153 0 153 153 0 153 
153 0 153 153 0 153 153 0 153 
153 0 153 153 0 153 153 0 153 
153 0 153 153 0 153 153 0 153 
153 0 153 153 0 153 153 0 153 
153 0 153 153 0 153 153 0 153 
153 0 153 153 0 153 153 0 153 
153 0 153 153 0 153 153 0 153 
153 0 153 153 0 153 153 0 153 
153 0 153 153 0 153 153 0 153 
153 0 153 153 0 153 153 0 153 
153 0 153 153 0 153 153 0 153 
153 0 153 153 0 153 153 0 153 
153 0 153 153 0 153 153 0 153 
153 0 153 153 0 153 153 0 153 
153 0 153 153 0 153 153 0 153 
153 0 153 153 0 153 153 0 153 
153 0 153 153 0 153 153 0 153 
153 0 153 153 0 153 153 0 153 
153 0 153 153 0 153 153 0 153 
153 0 153 153 0 153 153 0 153 
153 0 153 153 0 153 153 0 153 
153 0 153 153 0 153 153 0 153 
153 0 153 153 0 153 153 0 153 
153 0 153 153 0 153 153 0 153 
153 0 153 153 0 153 153 0 153 
153 0 153 153 0 153 153 0 153 
153 0 153 153 0 153 153 0 153 
153 0 153 153 0 153 153 0 153 
153 0 153 153 0 153 153 0 153 
153 0 153 153 0 153 153 0 153 
153 0 153 153 0 153 153 0 153 
153 0 153 153 0 153 153 0 153 
153 0 153 153 0 153 153 0 153 
153 0 153 153 0 153 153 0 153 
153 0 153 153 0 153 153 0 153 
153 0 153 153 0 153 153 0 153 
153 0 153 153 0 153 153 0 153 
153 0 153 153 0 153 153 0 153 
153 0 153 153 0 153 153 0 153 
153 0 153 153 0 153 153 0 153 
153 0 153 153 0 153 153 0 153 
153 0 153 153 0 153 153 0 153 
153 0 153 153 0 153 153 0 153 
153 0 153 153 0 153 153 0 153 
153 0 153 153 0 153 153 0 153 
153 0 153 153 0 153 153 0 153 
153 0 153 153 0 153 153 0 153 
153 0 153 153 0 153 153 0 153 
153 0 153 153 0 153 153 0 153 
153 0 153 153 0 153 153 0 153 
153 0 153 153 0 153 153 0 153 
153 0 153 153 0 153 153 0 153 
153 0 153 153 0 153 153 0 153 
153 0 153 153 0 153 153 0 153 
153 0 153 153 0 153 153 0 153 
153 0 153 153 0 153 153 0 153 
153 0 153 153 0 153 153 0 153 
153 0 153 153 0 153 153 0 153 
153 0 153 153 0 153 153 0 153 
153 0 153 153 0 153 153 0 153 
153 0 153 153 0 153 153 0 153 
153 0 153 153 0 153 153 0 153 
153 0 153 153 0 153 153 0 153 
153 0 153 153 0 153 153 0 153 
153 0 153 153 0 153 153 0 153 
153 0 153 153 0 153 153 0 153 
153 0 153 153 0 153 153 0 153 
153 0 153 153 0 153 153 0 153 
153 0 153 153 0 153 153 0 153 
153 0 153 153 0 153 153 0 153 
153 0 153 153 0 153 153 0 153 
153 0 153 153 0 153 153 0 153 
153 0 153 153 0 153 153 0 153 
153 0 153 153 0 153 153 0 153 
153 0 153 153 0 153 153 0 153 
153 0 153 153 0 153 153 0 153 
153 0 153 153 0 153 153 0 153 
153 0 153 153 0 153 153 0 153 
153 0 153 153 0 153 153 0 153 
153 0 153 153 0 153 153 0 153 
153 0 153 153 0 153 153 0 153 
153 0 153 153 0 153 153 0 153 
153 0 153 153 0 153 153 0 153 
153 0 153 153 0 153 153 0 153 
153 0 153 153 0 153 153 0 153 
153 0 153 153 0 153 153 0 153 
153 0 153 153 0 153 153 0 153 
153 0 153 153 0 153 153 0 153 
153 0 153 153 0 153 153 0 153 
153 0 153 153 0 153 153 0 153 
153 0 153 153 0 153 153 0 153 
153 0 153 153 0 153 153 0 153 
153 0 153 153 0 153 153 0 153 
153 0 153 153 0 153 153 0 153 
153 0 153 153 0 153 153 0 153 
153 0 153 153 0 153 153 0 153 
153 0 153 153 0 153 153 0 153 
153 0 153 153 0 153 153 0 153 
153 0 153 153 0 153 153 0 153 
153 0 153 153 0 153 153 0 153 
153 0 153 153 0 153 153 0 153 
153 0 153 153 0 153 153 0 153 
153 0 153 153 0 153 153 0 153 
153 0 153 153 0 153 153 0 153 
153 0 153 153 0 153 153 0 153 
153 0 153 153 0 153 153 0 153 
153 0 153 153 0 153 153 0 153 
153 0 153 153 0 153 153 0 153 
153 0 153 153 0 153 153 0 153 
153 0 153 153 0 153 153 0 153 
153 0 153 153 0 153 153 0 153 
153 0 153 153 0 153 153 0 153 
153 0 153 153 0 153 153 0 153 
153 0 153 153 0 153 153 0 153 
153 0 153 153 0 153 153 0 153 
153 0 153 153 0 153 153 0 153 
153 0 153 153 0 153 153 0 153 
153 0 153 153 0 153 153 0 153 
153 0 153 153 0 153 153 0 153 
153 0 153 153 0 153 153 0 153 
153 0 153 153 0 153 153 0 153 
153 0 153 153 0 153 153 0 153 
153 0 153 153 0 153 153 0 153 
153 0 153 153 0 153 153 0 153 
153 0 153 153 0 153 153 0 153 
153 0 153 153 0 153 153 0 153 
153 0 153 153 0 153 153 0 153 
153 0 153 153 0 153 153 0 153 
153 0 153 153 0 153 153 0 153 
153 0 153 153 0 153 153 0 153 
153 0 153 153 0 153 153 0 153 
153 0 153 153 0 153 153 0 153 
153 0 153 153 0 153 153 0 153 
153 0 153 153 0 153 153 0 153 
153 0 153 153 0 153 153 0 153 
153 0 153 153 0 153 153 0 153 
153 0 153 153 0 153 153 0 153 
153 0 153 153 0 153 153 0 153 
153 0 153 153 0 153 153 0 153 
153 0 153 153 0 153 153 0 153 
153 0 153 153 0 153 153 0 153 
153 0 153 153 0 153 153 0 153 
153 0 153 153 0 153 153 0 153 
153 0 153 153 0 153 153 0 153 
153 0 153 153 0 153 153 0 153 
153 0 153 153 0 153 153 0 153 
153 0 153 153 0 153 153 0 153 
153 0 153 153 0 153 153 0 153 
153 0 153 153 0 153 153 0 153 
153 0 153 153 0 153 153 0 153 
153 0 153 153 0 153 153 0 153 
153 0 153 153 0 153 153 0 153 
153 0 153 153 0 153 153 0 153 
153 0 153 153 0 153 153 0 153 
153 0 153 153 0 153 153 0 153 
153 0 153 153 0 153 153 0 153 
153 0 153 153 0 153 153 0 153 
153 0 153 153 0 153 153 0 153 
153 0 153 153 0 153 153 0 153 
153 0 153 153 0 153 153 0 153 
153 0 153 153 0 153 153 0 153 
153 0 153 153 0 153 153 0 153 
153 0 153 153 0 153 153 0 153 
153 0 153 153 0 153 153 0 153 
153 0 153 153 0 153 153 0 153 
153 0 153 153 0 153 153 0 153 
153 0 153 153 0 153 153 0 153 
153 0 153 153 0 153 153 0 153 
153 0 153 153 0 153 153 0 153 
153 0 153 153 0 153 153 0 153 
153 0 153 153 0 153 153 0 153 
153 0 153 153 0 153 153 0 153 
153 0 153 153 0 153 153 0 153 
153 0 153 153 0 153 153 0 153 
153 0 153 153 0 153 153 0 153 
153 0 153 153 0 153 153 0 153 
153 0 153 153 0 153 153 0 153 
153 0 153 153 0 153 153 0 153 
153 0 153 153 0 153 153 0 153 
153 0 153 153 0 153 153 0 153 
153 0 153 153 0 153 153 0 153 
153 0 153 153 0 153 153 0 153 
153 0 153 153 0 153 153 0 153 
153 0 153 153 0 153 153 0 153 
153 0 153 153 0 153 153 0 153 
153 0 153 153 0 153 153 0 153 
153 0 153 153 0 153 153 0 153 
153 0 153 153 0 153 153 0 153 
153 0 153 153 0 153 153 0 153 
153 0 153 153 0 153 153 0 153 
153 0 153 153 0 153 153 0 153 
153 0 153 153 0 153 153 0 153 
153 0 153 153 0 153 153 0 153 
153 0 153 153 0 153 153 0 153 
153 0 153 153 0 153 153 0 153 
153 0 153 153 0 153 153 0 153 
153 0 153 153 0 153 153 0 153 
153 0 153 153 0 153 153 0 153 
153 0 153 153 0 153 153 0 153 
153 0 153 153 0 153 153 0 153 
153 0 153 153 0 153 153 0 153 
153 0 153 153 0 153 153 0 153 
153 0 153 153 0 153 153 0 153 
153 0 153 153 0 153 153 0 153 
153 0 153 153 0 153 153 0 153 
153 0 153 153 0 153 153 0 153 
153 0 153 153 0 153 153 0 153 
153 0 153 153 0 153 153 0 153 
153 0 153 153 0 153 153 0 153 
153 0 153 153 0 153 153 0 153 
153 0 153 153 0 153 153 0 153 
153 0 153 153 0 153 153 0 153 
153 0 153 153 0 153 153 0 153 
153 0 153 153 0 153 153 0 153 
153 0 153 153 0 153 153 0 153 
153 0 153 153 0 153 153 0 153 
153 0 153 153 0 153 153 0 153 
153 0 153 153 0 153 153 0 153 
153 0 153 153 0 153 153 0 153 
153 0 153 153 0 153 153 0 153 
153 0 153 153 0 153 153 0 153 
153 0 153 153 0 153 153 0 153 
153 0 153 153 0 153 153 0 153 
153 0 153 153 0 153 153 0 153 
153 0 153 153 0 153 153 0 153 
153 0 153 153 0 153 153 0 153 
153 0 153 153 0 153 153 0 153 
153 0 153 153 0 153 153 0 153 
153 0 153 153 0 153 153 0 153 
153 0 153 153 0 153 153 0 153 
153 0 153 153 0 153 153 0 153 
153 0 153 153 0 153 153 0 153 
153 0 153 153 0 153 153 0 153 
153 0 153 153 0 153 153 0 153 
153 0 153 153 0 153 153 0 153 
153 0 153 153 0 153 153 0 153 
153 0 153 153 0 153 153 0 153 
153 0 153 153 0 153 153 0 153 
153 0 153 153 0 153 153 0 153 
153 0 153 153 0 153 153 0 153 
153 0 153 153 0 153 153 0 153 
153 0 153 153 0 153 153 0 153 
153 0 153 153 0 153 153 0 153 
153 0 153 153 0 153 153 0 153 
153 0 153 153 0 153 153 0 153 
153 0 153 153 0 153 153 0 153 
153 0 153 153 0 153 153 0 153 
153 0 153 153 0 153 153 0 153 
153 0 153 153 0 153 153 0 153 
153 0 153 153 0 153 153 0 153 
153 0 153 153 0 153 153 0 153 
153 0 153 153 0 153 153 0 153 
153 0 153 153 0 153 153 0 153 
153 0 153 153 0 153 153 0 153 
153 0 153 153 0 153 153 0 153 
153 0 153 153 0 153 153 0 153 
153 0 153 153 0 153 153 0 153 
153 0 153 153 0 153 153 0 153 
153 0 153 153 0 153 153 0 153 
153 0 153 153 0 153 153 0 153 
153 0 153 153 0 153 153 0 153 
153 0 153 153 0 153 153 0 153 
153 0 153 153 0 153 153 0 153 
153 0 153 153 0 153 153 0 153 
153 0 153 153 0 153 153 0 153 
153 0 153 153 0 153 153 0 153 
153 0 153 153 0 153 153 0 153 
153 0 153 153 0 153 153 0 153 
153 0 153 153 0 153 153 0 153 
153 0 153 153 0 153 153 0 153 
153 0 153 153 0 153 153 0 153 
153 0 153 153 0 153 153 0 153 
153 0 153 153 0 153 153 0 153 
153 0 153 153 0 153 153 0 153 
153 0 153 153 0 153 153 0 153 
153 0 153 153 0 153 153 0 153 
153 0 153 153 0 153 153 0 153 
153 0 153 153 0 153 153 0 153 
153 0 153 153 0 153 153 0 153 
153 0 153 153 0 153 153 0 153 
153 0 153 153 0 153 153 0 153 
153 0 153 153 0 153 153 0 153 
153 0 153 153 0 153 153 0 153 
153 0 153 153 0 153 153 0 153 
153 0 153 153 0 153 153 0 153 
153 0 153 153 0 153 153 0 153 
153 0 153 153 0 153 153 0 153 
153 0 153 153 0 153 153 0 153 
153 0 153 153 0 153 153 0 153 
153 0 153 153 0 153 153 0 153 
153 0 153 153 0 153 153 0 153 
153 0 153 153 0 153 153 0 153 
153 0 153 153 0 153 153 0 153 
153 0 153 153 0 153 153 0 153 
153 0 153 153 0 153 153 0 153 
153 0 153 153 0 153 153 0 153 
153 0 153 153 0 153 153 0 153 
153 0 153 153 0 153 153 0 153 
153 0 153 153 0 153 153 0 153 
153 0 153 153 0 153 153 0 153 
153 0 153 153 0 153 153 0 153 
153 0 153 153 0 153 153 0 153 
153 0 153 153 0 153 153 0 153 
153 0 153 153 0 153 153 0 153 
153 0 153 153 0 153 153 0 153 
153 0 153 153 0 153 153 0 153 
153 0 153 153 0 153 153 0 153 
153 0 153 153 0 153 153 0 153 
153 0 153 153 0 153 153 0 153 
153 0 153 153 0 153 153 0 153 
153 0 153 153 0 153 153 0 153 
153 0 153 153 0 153 153 0 153 
153 0 153 153 0 153 153 0 153 
153 0 153 153 0 153 153 0 153 
153 0 153 153 0 153 153 0 153 
153 0 153 153 0 153 153 0 153 
153 0 153 153 0 153 153 0 153 
153 0 153 153 0 153 153 0 153 
153 0 153 153 0 153 153 0 153 
153 0 153 153 0 153 153 0 153 
153 0 153 153 0 153 153 0 153 
153 0 153 153 0 153 153 0 153 
153 0 153 153 0 153 153 0 153 
153 0 153 153 0 153 153 0 153 
153 0 153 153 0 153 153 0 153 
153 0 153 153 0 153 153 0 153 
153 0 153 153 0 153 153 0 153 
153 0 153 153 0 153 153 0 153 
153 0 153 153 0 153 153 0 153 
153 0 153 153 0 153 153 0 153 
153 0 153 153 0 153 153 0 153 
153 0 153 153 0 153 153 0 153 
153 0 153 153 0 153 153 0 153 
153 0 153 153 0 153 153 0 153 
153 0 153 153 0 153 153 0 153 
153 0 153 153 0 153 153 0 153 
153 0 153 153 0 153 153 0 153 
153 0 153 153 0 153 153 0 153 
153 0 153 153 0 153 153 0 153 
153 0 153 153 0 153 153 0 153 
153 0 153 153 0 153 153 0 153 
153 0 153 153 0 153 153 0 153 
153 0 153 153 0 153 153 0 153 
153 0 153 153 0 153 153 0 153 
153 0 153 153 0 153 153 0 153 
153 0 153 153 0 153 153 0 153 
153 0 153 153 0 153 153 0 153 
153 0 153 153 0 153 153 0 153 
153 0 153 153 0 153 153 0 153 
153 0 153 153 0 153 153 0 153 
153 0 153 153 0 153 153 0 153 
153 0 153 153 0 153 153 0 153 
153 0 153 153 0 153 153 0 153 
153 0 153 153 0 153 153 0 153 
153 0 153 153 0 153 153 0 153 
153 0 153 153 0 153 153 0 153 
153 0 153 153 0 153 153 0 153 
153 0 153 153 0 153 153 0 153 
153 0 153 153 0 153 153 0 153 
153 0 153 153 0 153 153 0 153 
153 0 153 153 0 153 153 0 153 
153 0 153 153 0 153 153 0 153 
153 0 153 153 0 153 153 0 153 
153 0 153 153 0 153 153 0 153 
153 0 153 153 0 153 153 0 153 
153 0 153 153 0 153 153 0 153 
153 0 153 153 0 153 153 0 153 
153 0 153 153 0 153 153 0 153 
153 0 153 153 0 153 153 0 153 
153 0 153 153 0 153 153 0 153 
153 0 153 153 0 153 153 0 153 
153 0 153 153 0 153 153 0 153 
153 0 153 153 0 153 153 0 153 
153 0 153 153 0 153 153 0 153 
153 0 153 153 0 153 153 0 153 
153 0 153 153 0 153 153 0 153 
153 0 153 153 0 153 153 0 153 
153 0 153 153 0 153 153 0 153 
153 0 153 153 0 153 153 0 153 
153 0 153 153 0 153 153 0 153 
153 0 153 153 0 153 153 0 153 
153 0 153 153 0 153 153 0 153 
153 0 153 153 0 153 153 0 153 
153 0 153 153 0 153 153 0 153 
153 0 153 153 0 153 153 0 153 
153 0 153 153 0 153 153 0 153 
153 0 153 153 0 153 153 0 153 
153 0 153 153 0 153 153 0 153 
153 0 153 153 0 153 153 0 153 
153 0 153 153 0 153 153 0 153 
153 0 153 153 0 153 153 0 153 
153 0 153 153 0 153 153 0 153 
153 0 153 153 0 153 153 0 153 
153 0 153 153 0 153 153 0 153 
153 0 153 153 0 153 153 0 153 
153 0 153 153 0 153 153 0 153 
153 0 153 153 0 153 153 0 153 
153 0 153 153 0 153 153 0 153 
153 0 153 153 0 153 153 0 153 
153 0 153 153 0 153 153 0 153 
153 0 153 153 0 153 153 0 153 
153 0 153 153 0 153 153 0 153 
153 0 153 153 0 153 153 0 153 
153 0 153 153 0 153 153 0 153 
153 0 153 153 0 153 153 0 153 
153 0 153 153 0 153 153 0 153 
153 0 153 153 0 153 153 0 153 
153 0 153 153 0 153 153 0 153 
153 0 153 153 0 153 153 0 153 
153 0 153 153 0 153 153 0 153 
153 0 153 153 0 153 153 0 153 
153 0 153 153 0 153 153 0 153 
153 0 153 153 0 153 153 0 153 
153 0 153 153 0 153 153 0 153 
153 0 153 153 0 153 153 0 153 
153 0 153 153 0 153 153 0 153 
153 0 153 153 0 153 153 0 153 
153 0 153 153 0 153 153 0 153 
153 0 153 153 0 153 153 0 153 
153 0 153 153 0 153 153 0 153 
153 0 153 153 0 153 153 0 153 
153 0 153 153 0 153 153 0 153 
153 0 153 153 0 153 153 0 153 
153 0 153 153 0 153 153 0 153 
153 0 153 153 0 153 153 0 153 
153 0 153 153 0 153 153 0 153 
153 0 153 153 0 153 153 0 153 
153 0 153 153 0 153 153 0 153 
153 0 153 153 0 153 153 0 153 
153 0 153 153 0 153 153 0 153 
153 0 153 153 0 153 153 0 153 
153 0 153 153 0 153 153 0 153 
153 0 153 153 0 153 153 0 153 
153 0 153 153 0 153 153 0 153 
153 0 153 153 0 153 153 0 153 
153 0 153 153 0 153 153 0 153 
153 0 153 153 0 153 153 0 153 
153 0 153 153 0 153 153 0 153 
153 0 153 153 0 153 153 0 153 
153 0 153 153 0 153 153 0 153 
153 0 153 153 0 153 153 0 153 
153 0 153 153 0 153 153 0 153 
153 0 153 153 0 153 153 0 153 
153 0 153 153 0 153 153 0 153 
153 0 153 153 0 153 153 0 153 
153 0 153 153 0 153 153 0 153 
153 0 153 153 0 153 153 0 153 
153 0 153 153 0 153 153 0 153 
153 0 153 153 0 153 153 0 153 
153 0 153 153 0 153 153 0 153 
153 0 153 153 0 153 153 0 153 
153 0 153 153 0 153 153 0 153 
153 0 153 153 0 153 153 0 153 
153 0 153 153 0 153 153 0 153 
153 0 153 153 0 153 153 0 153 
153 0 153 153 0 153 153 0 153 
153 0 153 153 0 153 153 0 153 
153 0 153 153 0 153 153 0 153 
153 0 153 153 0 153 153 0 153 
153 0 153 153 0 153 153 0 153 
153 0 153 153 0 153 153 0 153 
153 0 153 153 0 153 153 0 153 
153 0 153 153 0 153 153 0 153 
153 0 153 153 0 153 153 0 153 
153 0 153 153 0 153 153 0 153 
153 0 153 153 0 153 153 0 153 
153 0 153 153 0 153 153 0 153 
153 0 153 153 0 153 153 0 153 
153 0 153 153 0 153 153 0 153 
153 0 153 153 0 153 153 0 153 
153 0 153 153 0 153 153 0 153 
153 0 153 153 0 153 153 0 153 
153 0 153 153 0 153 153 0 153 
153 0 153 153 0 153 153 0 153 
153 0 153 153 0 153 153 0 153 
153 0 153 153 0 153 153 0 153 
153 0 153 153 0 153 153 0 153 
153 0 153 153 0 153 153 0 153 
153 0 153 153 0 153 153 0 153 
153 0 153 153 0 153 153 0 153 
153 0 153 153 0 153 153 0 153 
153 0 153 153 0 153 153 0 153 
153 0 153 153 0 153 153 0 153 
153 0 153 153 0 153 153 0 153 
153 0 153 153 0 153 153 0 153 
153 0 153 153 0 153 153 0 153 
153 0 153 153 0 153 153 0 153 
153 0 153 153 0 153 153 0 153 
153 0 153 153 0 153 153 0 153 
153 0 153 153 0 153 153 0 153 
153 0 153 153 0 153 153 0 153 
153 0 153 153 0 153 153 0 153 
153 0 153 153 0 153 153 0 153 
153 0 153 153 0 153 153 0 153 
153 0 153 153 0 153 153 0 153 
153 0 153 153 0 153 153 0 153 
153 0 153 153 0 153 153 0 153 
153 0 153 153 0 153 153 0 153 
153 0 153 153 0 153 153 0 153 
153 0 153 153 0 153 153 0 153 
153 0 153 153 0 153 153 0 153 
153 0 153 153 0 153 153 0 153 
153 0 153 153 0 153 153 0 153 
153 0 153 153 0 153 153 0 153 
153 0 153 153 0 153 153 0 153 
153 0 153 153 0 153 153 0 153 
153 0 153 153 0 153 153 0 153 
153 0 153 153 0 153 153 0 153 
153 0 153 153 0 153 153 0 153 
153 0 153 153 0 153 153 0 153 
153 0 153 153 0 153 153 0 153 
153 0 153 153 0 153 153 0 153 
153 0 153 153 0 153 153 0 153 