# vtk DataFile Version 3.0
vtk output
ASCII
DATASET POLYDATA
POINTS 800 float
91 344.5 0 91.0942 344.497 0 91.188 344.488 0 
91.2811 344.473 0 91.373 344.453 0 91.4635 344.427 0 
91.5522 344.395 0 91.6387 344.357 0 91.7226 344.314 0 
91.8037 344.266 0 91.8817 344.214 0 91.9561 344.156 0 
92.0268 344.093 0 92.0935 344.027 0 92.1558 343.956 0 
92.2135 343.882 0 92.2665 343.804 0 92.3145 343.723 0 
92.3572 343.639 0 92.3947 343.552 0 92.4266 343.464 0 
92.4529 343.373 0 92.4734 343.281 0 92.4882 343.188 0 
92.497 343.094 0 92.5 343 0 92.497 342.906 0 
92.4882 342.812 0 92.4734 342.719 0 92.4529 342.627 0 
92.4266 342.536 0 92.3947 342.448 0 92.3572 342.361 0 
92.3145 342.277 0 92.2665 342.196 0 92.2135 342.118 0 
92.1558 342.044 0 92.0935 341.973 0 92.0268 341.907 0 
91.9561 341.844 0 91.8817 341.786 0 91.8037 341.734 0 
91.7226 341.686 0 91.6387 341.643 0 91.5522 341.605 0 
91.4635 341.573 0 91.373 341.547 0 91.2811 341.527 0 
91.188 341.512 0 91.0942 341.503 0 91 341.5 0 
90.9058 341.503 0 90.812 341.512 0 90.7189 341.527 0 
90.627 341.547 0 90.5365 341.573 0 90.4478 341.605 0 
90.3613 341.643 0 90.2774 341.686 0 90.1963 341.734 0 
90.1183 341.786 0 90.0439 341.844 0 89.9732 341.907 0 
89.9065 341.973 0 89.8442 342.044 0 89.7865 342.118 0 
89.7335 342.196 0 89.6855 342.277 0 89.6428 342.361 0 
89.6053 342.448 0 89.5734 342.536 0 89.5471 342.627 0 
89.5266 342.719 0 89.5118 342.812 0 89.503 342.906 0 
89.5 343 0 89.503 343.094 0 89.5118 343.188 0 
89.5266 343.281 0 89.5471 343.373 0 89.5734 343.464 0 
89.6053 343.552 0 89.6428 343.639 0 89.6855 343.723 0 
89.7335 343.804 0 89.7865 343.882 0 89.8442 343.956 0 
89.9065 344.027 0 89.9732 344.093 0 90.0439 344.156 0 
90.1183 344.214 0 90.1963 344.266 0 90.2774 344.314 0 
90.3613 344.357 0 90.4478 344.395 0 90.5365 344.427 0 
90.627 344.453 0 90.7189 344.473 0 90.812 344.488 0 
90.9058 344.497 0 179 224.5 0 179.094 224.497 0 
179.188 224.488 0 179.281 224.473 0 179.373 224.453 0 
179.464 224.427 0 179.552 224.395 0 179.639 224.357 0 
179.723 224.314 0 179.804 224.266 0 179.882 224.214 0 
179.956 224.156 0 180.027 224.093 0 180.093 224.027 0 
180.156 223.956 0 180.214 223.882 0 180.266 223.804 0 
180.314 223.723 0 180.357 223.639 0 180.395 223.552 0 
180.427 223.464 0 180.453 223.373 0 180.473 223.281 0 
180.488 223.188 0 180.497 223.094 0 180.5 223 0 
180.497 222.906 0 180.488 222.812 0 180.473 222.719 0 
180.453 222.627 0 180.427 222.536 0 180.395 222.448 0 
180.357 222.361 0 180.314 222.277 0 180.266 222.196 0 
180.214 222.118 0 180.156 222.044 0 180.093 221.973 0 
180.027 221.907 0 179.956 221.844 0 179.882 221.786 0 
179.804 221.734 0 179.723 221.686 0 179.639 221.643 0 
179.552 221.605 0 179.464 221.573 0 179.373 221.547 0 
179.281 221.527 0 179.188 221.512 0 179.094 221.503 0 
179 221.5 0 178.906 221.503 0 178.812 221.512 0 
178.719 221.527 0 178.627 221.547 0 178.536 221.573 0 
178.448 221.605 0 178.361 221.643 0 178.277 221.686 0 
178.196 221.734 0 178.118 221.786 0 178.044 221.844 0 
177.973 221.907 0 177.907 221.973 0 177.844 222.044 0 
177.786 222.118 0 177.734 222.196 0 177.686 222.277 0 
177.643 222.361 0 177.605 222.448 0 177.573 222.536 0 
177.547 222.627 0 177.527 222.719 0 177.512 222.812 0 
177.503 222.906 0 177.5 223 0 177.503 223.094 0 
177.512 223.188 0 177.527 223.281 0 177.547 223.373 0 
177.573 223.464 0 177.605 223.552 0 177.643 223.639 0 
177.686 223.723 0 177.734 223.804 0 177.786 223.882 0 
177.844 223.956 0 177.907 224.027 0 177.973 224.093 0 
178.044 224.156 0 178.118 224.214 0 178.196 224.266 0 
178.277 224.314 0 178.361 224.357 0 178.448 224.395 0 
178.536 224.427 0 178.627 224.453 0 178.719 224.473 0 
178.812 224.488 0 178.906 224.497 0 204 317.5 0 
204.094 317.497 0 204.188 317.488 0 204.281 317.473 0 
204.373 317.453 0 204.464 317.427 0 204.552 317.395 0 
204.639 317.357 0 204.723 317.314 0 204.804 317.266 0 
204.882 317.214 0 204.956 317.156 0 205.027 317.093 0 
205.093 317.027 0 205.156 316.956 0 205.214 316.882 0 
205.266 316.804 0 205.314 316.723 0 205.357 316.639 0 
205.395 316.552 0 205.427 316.464 0 205.453 316.373 0 
205.473 316.281 0 205.488 316.188 0 205.497 316.094 0 
205.5 316 0 205.497 315.906 0 205.488 315.812 0 
205.473 315.719 0 205.453 315.627 0 205.427 315.536 0 
205.395 315.448 0 205.357 315.361 0 205.314 315.277 0 
205.266 315.196 0 205.214 315.118 0 205.156 315.044 0 
205.093 314.973 0 205.027 314.907 0 204.956 314.844 0 
204.882 314.786 0 204.804 314.734 0 204.723 314.686 0 
204.639 314.643 0 204.552 314.605 0 204.464 314.573 0 
204.373 314.547 0 204.281 314.527 0 204.188 314.512 0 
204.094 314.503 0 204 314.5 0 203.906 314.503 0 
203.812 314.512 0 203.719 314.527 0 203.627 314.547 0 
203.536 314.573 0 203.448 314.605 0 203.361 314.643 0 
203.277 314.686 0 203.196 314.734 0 203.118 314.786 0 
203.044 314.844 0 202.973 314.907 0 202.907 314.973 0 
202.844 315.044 0 202.786 315.118 0 202.734 315.196 0 
202.686 315.277 0 202.643 315.361 0 202.605 315.448 0 
202.573 315.536 0 202.547 315.627 0 202.527 315.719 0 
202.512 315.812 0 202.503 315.906 0 202.5 316 0 
202.503 316.094 0 202.512 316.188 0 202.527 316.281 0 
202.547 316.373 0 202.573 316.464 0 202.605 316.552 0 
202.643 316.639 0 202.686 316.723 0 202.734 316.804 0 
202.786 316.882 0 202.844 316.956 0 202.907 317.027 0 
202.973 317.093 0 203.044 317.156 0 203.118 317.214 0 
203.196 317.266 0 203.277 317.314 0 203.361 317.357 0 
203.448 317.395 0 203.536 317.427 0 203.627 317.453 0 
203.719 317.473 0 203.812 317.488 0 203.906 317.497 0 
124 141.5 0 124.094 141.497 0 124.188 141.488 0 
124.281 141.473 0 124.373 141.453 0 124.464 141.427 0 
124.552 141.395 0 124.639 141.357 0 124.723 141.314 0 
124.804 141.266 0 124.882 141.214 0 124.956 141.156 0 
125.027 141.093 0 125.093 141.027 0 125.156 140.956 0 
125.214 140.882 0 125.266 140.804 0 125.314 140.723 0 
125.357 140.639 0 125.395 140.552 0 125.427 140.464 0 
125.453 140.373 0 125.473 140.281 0 125.488 140.188 0 
125.497 140.094 0 125.5 140 0 125.497 139.906 0 
125.488 139.812 0 125.473 139.719 0 125.453 139.627 0 
125.427 139.536 0 125.395 139.448 0 125.357 139.361 0 
125.314 139.277 0 125.266 139.196 0 125.214 139.118 0 
125.156 139.044 0 125.093 138.973 0 125.027 138.907 0 
124.956 138.844 0 124.882 138.786 0 124.804 138.734 0 
124.723 138.686 0 124.639 138.643 0 124.552 138.605 0 
124.464 138.573 0 124.373 138.547 0 124.281 138.527 0 
124.188 138.512 0 124.094 138.503 0 124 138.5 0 
123.906 138.503 0 123.812 138.512 0 123.719 138.527 0 
123.627 138.547 0 123.536 138.573 0 123.448 138.605 0 
123.361 138.643 0 123.277 138.686 0 123.196 138.734 0 
123.118 138.786 0 123.044 138.844 0 122.973 138.907 0 
122.907 138.973 0 122.844 139.044 0 122.786 139.118 0 
122.734 139.196 0 122.686 139.277 0 122.643 139.361 0 
122.605 139.448 0 122.573 139.536 0 122.547 139.627 0 
122.527 139.719 0 122.512 139.812 0 122.503 139.906 0 
122.5 140 0 122.503 140.094 0 122.512 140.188 0 
122.527 140.281 0 122.547 140.373 0 122.573 140.464 0 
122.605 140.552 0 122.643 140.639 0 122.686 140.723 0 
122.734 140.804 0 122.786 140.882 0 122.844 140.956 0 
122.907 141.027 0 122.973 141.093 0 123.044 141.156 0 
123.118 141.214 0 123.196 141.266 0 123.277 141.314 0 
123.361 141.357 0 123.448 141.395 0 123.536 141.427 0 
123.627 141.453 0 123.719 141.473 0 123.812 141.488 0 
123.906 141.497 0 187 330.5 0 187.094 330.497 0 
187.188 330.488 0 187.281 330.473 0 187.373 330.453 0 
187.464 330.427 0 187.552 330.395 0 187.639 330.357 0 
187.723 330.314 0 187.804 330.266 0 187.882 330.214 0 
187.956 330.156 0 188.027 330.093 0 188.093 330.027 0 
188.156 329.956 0 188.214 329.882 0 188.266 329.804 0 
188.314 329.723 0 188.357 329.639 0 188.395 329.552 0 
188.427 329.464 0 188.453 329.373 0 188.473 329.281 0 
188.488 329.188 0 188.497 329.094 0 188.5 329 0 
188.497 328.906 0 188.488 328.812 0 188.473 328.719 0 
188.453 328.627 0 188.427 328.536 0 188.395 328.448 0 
188.357 328.361 0 188.314 328.277 0 188.266 328.196 0 
188.214 328.118 0 188.156 328.044 0 188.093 327.973 0 
188.027 327.907 0 187.956 327.844 0 187.882 327.786 0 
187.804 327.734 0 187.723 327.686 0 187.639 327.643 0 
187.552 327.605 0 187.464 327.573 0 187.373 327.547 0 
187.281 327.527 0 187.188 327.512 0 187.094 327.503 0 
187 327.5 0 186.906 327.503 0 186.812 327.512 0 
186.719 327.527 0 186.627 327.547 0 186.536 327.573 0 
186.448 327.605 0 186.361 327.643 0 186.277 327.686 0 
186.196 327.734 0 186.118 327.786 0 186.044 327.844 0 
185.973 327.907 0 185.907 327.973 0 185.844 328.044 0 
185.786 328.118 0 185.734 328.196 0 185.686 328.277 0 
185.643 328.361 0 185.605 328.448 0 185.573 328.536 0 
185.547 328.627 0 185.527 328.719 0 185.512 328.812 0 
185.503 328.906 0 185.5 329 0 185.503 329.094 0 
185.512 329.188 0 185.527 329.281 0 185.547 329.373 0 
185.573 329.464 0 185.605 329.552 0 185.643 329.639 0 
185.686 329.723 0 185.734 329.804 0 185.786 329.882 0 
185.844 329.956 0 185.907 330.027 0 185.973 330.093 0 
186.044 330.156 0 186.118 330.214 0 186.196 330.266 0 
186.277 330.314 0 186.361 330.357 0 186.448 330.395 0 
186.536 330.427 0 186.627 330.453 0 186.719 330.473 0 
186.812 330.488 0 186.906 330.497 0 196 208.5 0 
196.094 208.497 0 196.188 208.488 0 196.281 208.473 0 
196.373 208.453 0 196.464 208.427 0 196.552 208.395 0 
196.639 208.357 0 196.723 208.314 0 196.804 208.266 0 
196.882 208.214 0 196.956 208.156 0 197.027 208.093 0 
197.093 208.027 0 197.156 207.956 0 197.214 207.882 0 
197.266 207.804 0 197.314 207.723 0 197.357 207.639 0 
197.395 207.552 0 197.427 207.464 0 197.453 207.373 0 
197.473 207.281 0 197.488 207.188 0 197.497 207.094 0 
197.5 207 0 197.497 206.906 0 197.488 206.812 0 
197.473 206.719 0 197.453 206.627 0 197.427 206.536 0 
197.395 206.448 0 197.357 206.361 0 197.314 206.277 0 
197.266 206.196 0 197.214 206.118 0 197.156 206.044 0 
197.093 205.973 0 197.027 205.907 0 196.956 205.844 0 
196.882 205.786 0 196.804 205.734 0 196.723 205.686 0 
196.639 205.643 0 196.552 205.605 0 196.464 205.573 0 
196.373 205.547 0 196.281 205.527 0 196.188 205.512 0 
196.094 205.503 0 196 205.5 0 195.906 205.503 0 
195.812 205.512 0 195.719 205.527 0 195.627 205.547 0 
195.536 205.573 0 195.448 205.605 0 195.361 205.643 0 
195.277 205.686 0 195.196 205.734 0 195.118 205.786 0 
195.044 205.844 0 194.973 205.907 0 194.907 205.973 0 
194.844 206.044 0 194.786 206.118 0 194.734 206.196 0 
194.686 206.277 0 194.643 206.361 0 194.605 206.448 0 
194.573 206.536 0 194.547 206.627 0 194.527 206.719 0 
194.512 206.812 0 194.503 206.906 0 194.5 207 0 
194.503 207.094 0 194.512 207.188 0 194.527 207.281 0 
194.547 207.373 0 194.573 207.464 0 194.605 207.552 0 
194.643 207.639 0 194.686 207.723 0 194.734 207.804 0 
194.786 207.882 0 194.844 207.956 0 194.907 208.027 0 
194.973 208.093 0 195.044 208.156 0 195.118 208.214 0 
195.196 208.266 0 195.277 208.314 0 195.361 208.357 0 
195.448 208.395 0 195.536 208.427 0 195.627 208.453 0 
195.719 208.473 0 195.812 208.488 0 195.906 208.497 0 
188 328.5 0 188.094 328.497 0 188.188 328.488 0 
188.281 328.473 0 188.373 328.453 0 188.464 328.427 0 
188.552 328.395 0 188.639 328.357 0 188.723 328.314 0 
188.804 328.266 0 188.882 328.214 0 188.956 328.156 0 
189.027 328.093 0 189.093 328.027 0 189.156 327.956 0 
189.214 327.882 0 189.266 327.804 0 189.314 327.723 0 
189.357 327.639 0 189.395 327.552 0 189.427 327.464 0 
189.453 327.373 0 189.473 327.281 0 189.488 327.188 0 
189.497 327.094 0 189.5 327 0 189.497 326.906 0 
189.488 326.812 0 189.473 326.719 0 189.453 326.627 0 
189.427 326.536 0 189.395 326.448 0 189.357 326.361 0 
189.314 326.277 0 189.266 326.196 0 189.214 326.118 0 
189.156 326.044 0 189.093 325.973 0 189.027 325.907 0 
188.956 325.844 0 188.882 325.786 0 188.804 325.734 0 
188.723 325.686 0 188.639 325.643 0 188.552 325.605 0 
188.464 325.573 0 188.373 325.547 0 188.281 325.527 0 
188.188 325.512 0 188.094 325.503 0 188 325.5 0 
187.906 325.503 0 187.812 325.512 0 187.719 325.527 0 
187.627 325.547 0 187.536 325.573 0 187.448 325.605 0 
187.361 325.643 0 187.277 325.686 0 187.196 325.734 0 
187.118 325.786 0 187.044 325.844 0 186.973 325.907 0 
186.907 325.973 0 186.844 326.044 0 186.786 326.118 0 
186.734 326.196 0 186.686 326.277 0 186.643 326.361 0 
186.605 326.448 0 186.573 326.536 0 186.547 326.627 0 
186.527 326.719 0 186.512 326.812 0 186.503 326.906 0 
186.5 327 0 186.503 327.094 0 186.512 327.188 0 
186.527 327.281 0 186.547 327.373 0 186.573 327.464 0 
186.605 327.552 0 186.643 327.639 0 186.686 327.723 0 
186.734 327.804 0 186.786 327.882 0 186.844 327.956 0 
186.907 328.027 0 186.973 328.093 0 187.044 328.156 0 
187.118 328.214 0 187.196 328.266 0 187.277 328.314 0 
187.361 328.357 0 187.448 328.395 0 187.536 328.427 0 
187.627 328.453 0 187.719 328.473 0 187.812 328.488 0 
187.906 328.497 0 80 253.5 0 80.0942 253.497 0 
80.188 253.488 0 80.2811 253.473 0 80.373 253.453 0 
80.4635 253.427 0 80.5522 253.395 0 80.6387 253.357 0 
80.7226 253.314 0 80.8037 253.266 0 80.8817 253.214 0 
80.9561 253.156 0 81.0268 253.093 0 81.0935 253.027 0 
81.1558 252.956 0 81.2135 252.882 0 81.2665 252.804 0 
81.3145 252.723 0 81.3572 252.639 0 81.3947 252.552 0 
81.4266 252.464 0 81.4529 252.373 0 81.4734 252.281 0 
81.4882 252.188 0 81.497 252.094 0 81.5 252 0 
81.497 251.906 0 81.4882 251.812 0 81.4734 251.719 0 
81.4529 251.627 0 81.4266 251.536 0 81.3947 251.448 0 
81.3572 251.361 0 81.3145 251.277 0 81.2665 251.196 0 
81.2135 251.118 0 81.1558 251.044 0 81.0935 250.973 0 
81.0268 250.907 0 80.9561 250.844 0 80.8817 250.786 0 
80.8037 250.734 0 80.7226 250.686 0 80.6387 250.643 0 
80.5522 250.605 0 80.4635 250.573 0 80.373 250.547 0 
80.2811 250.527 0 80.188 250.512 0 80.0942 250.503 0 
80 250.5 0 79.9058 250.503 0 79.812 250.512 0 
79.7189 250.527 0 79.627 250.547 0 79.5365 250.573 0 
79.4478 250.605 0 79.3613 250.643 0 79.2774 250.686 0 
79.1963 250.734 0 79.1183 250.786 0 79.0439 250.844 0 
78.9732 250.907 0 78.9065 250.973 0 78.8442 251.044 0 
78.7865 251.118 0 78.7335 251.196 0 78.6855 251.277 0 
78.6428 251.361 0 78.6053 251.448 0 78.5734 251.536 0 
78.5471 251.627 0 78.5266 251.719 0 78.5118 251.812 0 
78.503 251.906 0 78.5 252 0 78.503 252.094 0 
78.5118 252.188 0 78.5266 252.281 0 78.5471 252.373 0 
78.5734 252.464 0 78.6053 252.552 0 78.6428 252.639 0 
78.6855 252.723 0 78.7335 252.804 0 78.7865 252.882 0 
78.8442 252.956 0 78.9065 253.027 0 78.9732 253.093 0 
79.0439 253.156 0 79.1183 253.214 0 79.1963 253.266 0 
79.2774 253.314 0 79.3613 253.357 0 79.4478 253.395 0 
79.5365 253.427 0 79.627 253.453 0 79.7189 253.473 0 
79.812 253.488 0 79.9058 253.497 0 
LINES 8 816
101 0 1 2 3 4 5 6 7 8 9 10 11 12 13 14 15 16 17 18 19 20 21 22 23 24 25 26 27 28 29 30 31 32 33 34 35 36 37 38 39 40 41 42 43 44 45 46 47 48 49 50 51 52 53 54 55 56 57 58 59 60 61 62 63 64 65 66 67 68 69 70 71 72 73 74 75 76 77 78 79 80 81 82 83 84 85 86 87 88 89 90 91 92 93 94 95 96 97 98 99 0 
101 100 101 102 103 104 105 106 107 108 109 110 111 112 113 114 115 116 117 118 119 120 121 122 123 124 125 126 127 128 129 130 131 132 133 134 135 136 137 138 139 140 141 142 143 144 145 146 147 148 149 150 151 152 153 154 155 156 157 158 159 160 161 162 163 164 165 166 167 168 169 170 171 172 173 174 175 176 177 178 179 180 181 182 183 184 185 186 187 188 189 190 191 192 193 194 195 196 197 198 199 100 
101 200 201 202 203 204 205 206 207 208 209 210 211 212 213 214 215 216 217 218 219 220 221 222 223 224 225 226 227 228 229 230 231 232 233 234 235 236 237 238 239 240 241 242 243 244 245 246 247 248 249 250 251 252 253 254 255 256 257 258 259 260 261 262 263 264 265 266 267 268 269 270 271 272 273 274 275 276 277 278 279 280 281 282 283 284 285 286 287 288 289 290 291 292 293 294 295 296 297 298 299 200 
101 300 301 302 303 304 305 306 307 308 309 310 311 312 313 314 315 316 317 318 319 320 321 322 323 324 325 326 327 328 329 330 331 332 333 334 335 336 337 338 339 340 341 342 343 344 345 346 347 348 349 350 351 352 353 354 355 356 357 358 359 360 361 362 363 364 365 366 367 368 369 370 371 372 373 374 375 376 377 378 379 380 381 382 383 384 385 386 387 388 389 390 391 392 393 394 395 396 397 398 399 300 
101 400 401 402 403 404 405 406 407 408 409 410 411 412 413 414 415 416 417 418 419 420 421 422 423 424 425 426 427 428 429 430 431 432 433 434 435 436 437 438 439 440 441 442 443 444 445 446 447 448 449 450 451 452 453 454 455 456 457 458 459 460 461 462 463 464 465 466 467 468 469 470 471 472 473 474 475 476 477 478 479 480 481 482 483 484 485 486 487 488 489 490 491 492 493 494 495 496 497 498 499 400 
101 500 501 502 503 504 505 506 507 508 509 510 511 512 513 514 515 516 517 518 519 520 521 522 523 524 525 526 527 528 529 530 531 532 533 534 535 536 537 538 539 540 541 542 543 544 545 546 547 548 549 550 551 552 553 554 555 556 557 558 559 560 561 562 563 564 565 566 567 568 569 570 571 572 573 574 575 576 577 578 579 580 581 582 583 584 585 586 587 588 589 590 591 592 593 594 595 596 597 598 599 500 
101 600 601 602 603 604 605 606 607 608 609 610 611 612 613 614 615 616 617 618 619 620 621 622 623 624 625 626 627 628 629 630 631 632 633 634 635 636 637 638 639 640 641 642 643 644 645 646 647 648 649 650 651 652 653 654 655 656 657 658 659 660 661 662 663 664 665 666 667 668 669 670 671 672 673 674 675 676 677 678 679 680 681 682 683 684 685 686 687 688 689 690 691 692 693 694 695 696 697 698 699 600 
101 700 701 702 703 704 705 706 707 708 709 710 711 712 713 714 715 716 717 718 719 720 721 722 723 724 725 726 727 728 729 730 731 732 733 734 735 736 737 738 739 740 741 742 743 744 745 746 747 748 749 750 751 752 753 754 755 756 757 758 759 760 761 762 763 764 765 766 767 768 769 770 771 772 773 774 775 776 777 778 779 780 781 782 783 784 785 786 787 788 789 790 791 792 793 794 795 796 797 798 799 700 

POINT_DATA 800
SCALARS scales float
LOOKUP_TABLE default
3 3 3 3 3 3 3 3 3 
3 3 3 3 3 3 3 3 3 
3 3 3 3 3 3 3 3 3 
3 3 3 3 3 3 3 3 3 
3 3 3 3 3 3 3 3 3 
3 3 3 3 3 3 3 3 3 
3 3 3 3 3 3 3 3 3 
3 3 3 3 3 3 3 3 3 
3 3 3 3 3 3 3 3 3 
3 3 3 3 3 3 3 3 3 
3 3 3 3 3 3 3 3 3 
3 3 3 3 3 3 3 3 3 
3 3 3 3 3 3 3 3 3 
3 3 3 3 3 3 3 3 3 
3 3 3 3 3 3 3 3 3 
3 3 3 3 3 3 3 3 3 
3 3 3 3 3 3 3 3 3 
3 3 3 3 3 3 3 3 3 
3 3 3 3 3 3 3 3 3 
3 3 3 3 3 3 3 3 3 
3 3 3 3 3 3 3 3 3 
3 3 3 3 3 3 3 3 3 
3 3 3 3 3 3 3 3 3 
3 3 3 3 3 3 3 3 3 
3 3 3 3 3 3 3 3 3 
3 3 3 3 3 3 3 3 3 
3 3 3 3 3 3 3 3 3 
3 3 3 3 3 3 3 3 3 
3 3 3 3 3 3 3 3 3 
3 3 3 3 3 3 3 3 3 
3 3 3 3 3 3 3 3 3 
3 3 3 3 3 3 3 3 3 
3 3 3 3 3 3 3 3 3 
3 3 3 3 3 3 3 3 3 
3 3 3 3 3 3 3 3 3 
3 3 3 3 3 3 3 3 3 
3 3 3 3 3 3 3 3 3 
3 3 3 3 3 3 3 3 3 
3 3 3 3 3 3 3 3 3 
3 3 3 3 3 3 3 3 3 
3 3 3 3 3 3 3 3 3 
3 3 3 3 3 3 3 3 3 
3 3 3 3 3 3 3 3 3 
3 3 3 3 3 3 3 3 3 
3 3 3 3 3 3 3 3 3 
3 3 3 3 3 3 3 3 3 
3 3 3 3 3 3 3 3 3 
3 3 3 3 3 3 3 3 3 
3 3 3 3 3 3 3 3 3 
3 3 3 3 3 3 3 3 3 
3 3 3 3 3 3 3 3 3 
3 3 3 3 3 3 3 3 3 
3 3 3 3 3 3 3 3 3 
3 3 3 3 3 3 3 3 3 
3 3 3 3 3 3 3 3 3 
3 3 3 3 3 3 3 3 3 
3 3 3 3 3 3 3 3 3 
3 3 3 3 3 3 3 3 3 
3 3 3 3 3 3 3 3 3 
3 3 3 3 3 3 3 3 3 
3 3 3 3 3 3 3 3 3 
3 3 3 3 3 3 3 3 3 
3 3 3 3 3 3 3 3 3 
3 3 3 3 3 3 3 3 3 
3 3 3 3 3 3 3 3 3 
3 3 3 3 3 3 3 3 3 
3 3 3 3 3 3 3 3 3 
3 3 3 3 3 3 3 3 3 
3 3 3 3 3 3 3 3 3 
3 3 3 3 3 3 3 3 3 
3 3 3 3 3 3 3 3 3 
3 3 3 3 3 3 3 3 3 
3 3 3 3 3 3 3 3 3 
3 3 3 3 3 3 3 3 3 
3 3 3 3 3 3 3 3 3 
3 3 3 3 3 3 3 3 3 
3 3 3 3 3 3 3 3 3 
3 3 3 3 3 3 3 3 3 
3 3 3 3 3 3 3 3 3 
3 3 3 3 3 3 3 3 3 
3 3 3 3 3 3 3 3 3 
3 3 3 3 3 3 3 3 3 
3 3 3 3 3 3 3 3 3 
3 3 3 3 3 3 3 3 3 
3 3 3 3 3 3 3 3 3 
3 3 3 3 3 3 3 3 3 
3 3 3 3 3 3 3 3 3 
3 3 3 3 3 3 3 3 3 
3 3 3 3 3 3 3 3 
FIELD FieldData 1
Colors 3 800 unsigned_char
153 0 153 153 0 153 153 0 153 
153 0 153 153 0 153 153 0 153 
153 0 153 153 0 153 153 0 153 
153 0 153 153 0 153 153 0 153 
153 0 153 153 0 153 153 0 153 
153 0 153 153 0 153 153 0 153 
153 0 153 153 0 153 153 0 153 
153 0 153 153 0 153 153 0 153 
153 0 153 153 0 153 153 0 153 
153 0 153 153 0 153 153 0 153 
153 0 153 153 0 153 153 0 153 
153 0 153 153 0 153 153 0 153 
153 0 153 153 0 153 153 0 153 
153 0 153 153 0 153 153 0 153 
153 0 153 153 0 153 153 0 153 
153 0 153 153 0 153 153 0 153 
153 0 153 153 0 153 153 0 153 
153 0 153 153 0 153 153 0 153 
153 0 153 153 0 153 153 0 153 
153 0 153 153 0 153 153 0 153 
153 0 153 153 0 153 153 0 153 
153 0 153 153 0 153 153 0 153 
153 0 153 153 0 153 153 0 153 
153 0 153 153 0 153 153 0 153 
153 0 153 153 0 153 153 0 153 
153 0 153 153 0 153 153 0 153 
153 0 153 153 0 153 153 0 153 
153 0 153 153 0 153 153 0 153 
153 0 153 153 0 153 153 0 153 
153 0 153 153 0 153 153 0 153 
153 0 153 153 0 153 153 0 153 
153 0 153 153 0 153 153 0 153 
153 0 153 153 0 153 153 0 153 
153 0 153 153 0 153 153 0 153 
153 0 153 153 0 153 153 0 153 
153 0 153 153 0 153 153 0 153 
153 0 153 153 0 153 153 0 153 
153 0 153 153 0 153 153 0 153 
153 0 153 153 0 153 153 0 153 
153 0 153 153 0 153 153 0 153 
153 0 153 153 0 153 153 0 153 
153 0 153 153 0 153 153 0 153 
153 0 153 153 0 153 153 0 153 
153 0 153 153 0 153 153 0 153 
153 0 153 153 0 153 153 0 153 
153 0 153 153 0 153 153 0 153 
153 0 153 153 0 153 153 0 153 
153 0 153 153 0 153 153 0 153 
153 0 153 153 0 153 153 0 153 
153 0 153 153 0 153 153 0 153 
153 0 153 153 0 153 153 0 153 
153 0 153 153 0 153 153 0 153 
153 0 153 153 0 153 153 0 153 
153 0 153 153 0 153 153 0 153 
153 0 153 153 0 153 153 0 153 
153 0 153 153 0 153 153 0 153 
153 0 153 153 0 153 153 0 153 
153 0 153 153 0 153 153 0 153 
153 0 153 153 0 153 153 0 153 
153 0 153 153 0 153 153 0 153 
153 0 153 153 0 153 153 0 153 
153 0 153 153 0 153 153 0 153 
153 0 153 153 0 153 153 0 153 
153 0 153 153 0 153 153 0 153 
153 0 153 153 0 153 153 0 153 
153 0 153 153 0 153 153 0 153 
153 0 153 153 0 153 153 0 153 
153 0 153 153 0 153 153 0 153 
153 0 153 153 0 153 153 0 153 
153 0 153 153 0 153 153 0 153 
153 0 153 153 0 153 153 0 153 
153 0 153 153 0 153 153 0 153 
153 0 153 153 0 153 153 0 153 
153 0 153 153 0 153 153 0 153 
153 0 153 153 0 153 153 0 153 
153 0 153 153 0 153 153 0 153 
153 0 153 153 0 153 153 0 153 
153 0 153 153 0 153 153 0 153 
153 0 153 153 0 153 153 0 153 
153 0 153 153 0 153 153 0 153 
153 0 153 153 0 153 153 0 153 
153 0 153 153 0 153 153 0 153 
153 0 153 153 0 153 153 0 153 
153 0 153 153 0 153 153 0 153 
153 0 153 153 0 153 153 0 153 
153 0 153 153 0 153 153 0 153 
153 0 153 153 0 153 153 0 153 
153 0 153 153 0 153 153 0 153 
153 0 153 153 0 153 153 0 153 
153 0 153 153 0 153 153 0 153 
153 0 153 153 0 153 153 0 153 
153 0 153 153 0 153 153 0 153 
153 0 153 153 0 153 153 0 153 
153 0 153 153 0 153 153 0 153 
153 0 153 153 0 153 153 0 153 
153 0 153 153 0 153 153 0 153 
153 0 153 153 0 153 153 0 153 
153 0 153 153 0 153 153 0 153 
153 0 153 153 0 153 153 0 153 
153 0 153 153 0 153 153 0 153 
153 0 153 153 0 153 153 0 153 
153 0 153 153 0 153 153 0 153 
153 0 153 153 0 153 153 0 153 
153 0 153 153 0 153 153 0 153 
153 0 153 153 0 153 153 0 153 
153 0 153 153 0 153 153 0 153 
153 0 153 153 0 153 153 0 153 
153 0 153 153 0 153 153 0 153 
153 0 153 153 0 153 153 0 153 
153 0 153 153 0 153 153 0 153 
153 0 153 153 0 153 153 0 153 
153 0 153 153 0 153 153 0 153 
153 0 153 153 0 153 153 0 153 
153 0 153 153 0 153 153 0 153 
153 0 153 153 0 153 153 0 153 
153 0 153 153 0 153 153 0 153 
153 0 153 153 0 153 153 0 153 
153 0 153 153 0 153 153 0 153 
153 0 153 153 0 153 153 0 153 
153 0 153 153 0 153 153 0 153 
153 0 153 153 0 153 153 0 153 
153 0 153 153 0 153 153 0 153 
153 0 153 153 0 153 153 0 153 
153 0 153 153 0 153 153 0 153 
153 0 153 153 0 153 153 0 153 
153 0 153 153 0 153 153 0 153 
153 0 153 153 0 153 153 0 153 
153 0 153 153 0 153 153 0 153 
153 0 153 153 0 153 153 0 153 
153 0 153 153 0 153 153 0 153 
153 0 153 153 0 153 153 0 153 
153 0 153 153 0 153 153 0 153 
153 0 153 153 0 153 153 0 153 
153 0 153 153 0 153 153 0 153 
153 0 153 153 0 153 153 0 153 
153 0 153 153 0 153 153 0 153 
153 0 153 153 0 153 153 0 153 
153 0 153 153 0 153 153 0 153 
153 0 153 153 0 153 153 0 153 
153 0 153 153 0 153 153 0 153 
153 0 153 153 0 153 153 0 153 
153 0 153 153 0 153 153 0 153 
153 0 153 153 0 153 153 0 153 
153 0 153 153 0 153 153 0 153 
153 0 153 153 0 153 153 0 153 
153 0 153 153 0 153 153 0 153 
153 0 153 153 0 153 153 0 153 
153 0 153 153 0 153 153 0 153 
153 0 153 153 0 153 153 0 153 
153 0 153 153 0 153 153 0 153 
153 0 153 153 0 153 153 0 153 
153 0 153 153 0 153 153 0 153 
153 0 153 153 0 153 153 0 153 
153 0 153 153 0 153 153 0 153 
153 0 153 153 0 153 153 0 153 
153 0 153 153 0 153 153 0 153 
153 0 153 153 0 153 153 0 153 
153 0 153 153 0 153 153 0 153 
153 0 153 153 0 153 153 0 153 
153 0 153 153 0 153 153 0 153 
153 0 153 153 0 153 153 0 153 
153 0 153 153 0 153 153 0 153 
153 0 153 153 0 153 153 0 153 
153 0 153 153 0 153 153 0 153 
153 0 153 153 0 153 153 0 153 
153 0 153 153 0 153 153 0 153 
153 0 153 153 0 153 153 0 153 
153 0 153 153 0 153 153 0 153 
153 0 153 153 0 153 153 0 153 
153 0 153 153 0 153 153 0 153 
153 0 153 153 0 153 153 0 153 
153 0 153 153 0 153 153 0 153 
153 0 153 153 0 153 153 0 153 
153 0 153 153 0 153 153 0 153 
153 0 153 153 0 153 153 0 153 
153 0 153 153 0 153 153 0 153 
153 0 153 153 0 153 153 0 153 
153 0 153 153 0 153 153 0 153 
153 0 153 153 0 153 153 0 153 
153 0 153 153 0 153 153 0 153 
153 0 153 153 0 153 153 0 153 
153 0 153 153 0 153 153 0 153 
153 0 153 153 0 153 153 0 153 
153 0 153 153 0 153 153 0 153 
153 0 153 153 0 153 153 0 153 
153 0 153 153 0 153 153 0 153 
153 0 153 153 0 153 153 0 153 
153 0 153 153 0 153 153 0 153 
153 0 153 153 0 153 153 0 153 
153 0 153 153 0 153 153 0 153 
153 0 153 153 0 153 153 0 153 
153 0 153 153 0 153 153 0 153 
153 0 153 153 0 153 153 0 153 
153 0 153 153 0 153 153 0 153 
153 0 153 153 0 153 153 0 153 
153 0 153 153 0 153 153 0 153 
153 0 153 153 0 153 153 0 153 
153 0 153 153 0 153 153 0 153 
153 0 153 153 0 153 153 0 153 
153 0 153 153 0 153 153 0 153 
153 0 153 153 0 153 153 0 153 
153 0 153 153 0 153 153 0 153 
153 0 153 153 0 153 153 0 153 
153 0 153 153 0 153 153 0 153 
153 0 153 153 0 153 153 0 153 
153 0 153 153 0 153 153 0 153 
153 0 153 153 0 153 153 0 153 
153 0 153 153 0 153 153 0 153 
153 0 153 153 0 153 153 0 153 
153 0 153 153 0 153 153 0 153 
153 0 153 153 0 153 153 0 153 
153 0 153 153 0 153 153 0 153 
153 0 153 153 0 153 153 0 153 
153 0 153 153 0 153 153 0 153 
153 0 153 153 0 153 153 0 153 
153 0 153 153 0 153 153 0 153 
153 0 153 153 0 153 153 0 153 
153 0 153 153 0 153 153 0 153 
153 0 153 153 0 153 153 0 153 
153 0 153 153 0 153 153 0 153 
153 0 153 153 0 153 153 0 153 
153 0 153 153 0 153 153 0 153 
153 0 153 153 0 153 153 0 153 
153 0 153 153 0 153 153 0 153 
153 0 153 153 0 153 153 0 153 
153 0 153 153 0 153 153 0 153 
153 0 153 153 0 153 153 0 153 
153 0 153 153 0 153 153 0 153 
153 0 153 153 0 153 153 0 153 
153 0 153 153 0 153 153 0 153 
153 0 153 153 0 153 153 0 153 
153 0 153 153 0 153 153 0 153 
153 0 153 153 0 153 153 0 153 
153 0 153 153 0 153 153 0 153 
153 0 153 153 0 153 153 0 153 
153 0 153 153 0 153 153 0 153 
153 0 153 153 0 153 153 0 153 
153 0 153 153 0 153 153 0 153 
153 0 153 153 0 153 153 0 153 
153 0 153 153 0 153 153 0 153 
153 0 153 153 0 153 153 0 153 
153 0 153 153 0 153 153 0 153 
153 0 153 153 0 153 153 0 153 
153 0 153 153 0 153 153 0 153 
153 0 153 153 0 153 153 0 153 
153 0 153 153 0 153 153 0 153 
153 0 153 153 0 153 153 0 153 
153 0 153 153 0 153 153 0 153 
153 0 153 153 0 153 153 0 153 
153 0 153 153 0 153 153 0 153 
153 0 153 153 0 153 153 0 153 
153 0 153 153 0 153 153 0 153 
153 0 153 153 0 153 153 0 153 
153 0 153 153 0 153 153 0 153 
153 0 153 153 0 153 153 0 153 
153 0 153 153 0 153 153 0 153 
153 0 153 153 0 153 153 0 153 
153 0 153 153 0 153 153 0 153 
153 0 153 153 0 153 153 0 153 
153 0 153 153 0 153 153 0 153 
153 0 153 153 0 153 153 0 153 
153 0 153 153 0 153 153 0 153 
153 0 153 153 0 153 153 0 153 
153 0 153 153 0 153 153 0 153 
153 0 153 153 0 153 153 0 153 
153 0 153 153 0 153 153 0 153 
153 0 153 153 0 153 
