# vtk DataFile Version 3.0
vtk output
ASCII
DATASET POLYDATA
POINTS 3000 float
396.775 189.725 0 396.869 189.722 0 396.963 189.713 0 
397.056 189.698 0 397.148 189.678 0 397.239 189.652 0 
397.327 189.62 0 397.414 189.582 0 397.498 189.539 0 
397.579 189.492 0 397.657 189.439 0 397.731 189.381 0 
397.802 189.318 0 397.868 189.252 0 397.931 189.181 0 
397.989 189.107 0 398.041 189.029 0 398.089 188.948 0 
398.132 188.864 0 398.17 188.777 0 398.202 188.689 0 
398.228 188.598 0 398.248 188.506 0 398.263 188.413 0 
398.272 188.319 0 398.275 188.225 0 398.272 188.131 0 
398.263 188.037 0 398.248 187.944 0 398.228 187.852 0 
398.202 187.761 0 398.17 187.673 0 398.132 187.586 0 
398.089 187.502 0 398.041 187.421 0 397.989 187.343 0 
397.931 187.269 0 397.868 187.198 0 397.802 187.132 0 
397.731 187.069 0 397.657 187.011 0 397.579 186.959 0 
397.498 186.911 0 397.414 186.868 0 397.327 186.83 0 
397.239 186.798 0 397.148 186.772 0 397.056 186.752 0 
396.963 186.737 0 396.869 186.728 0 396.775 186.725 0 
396.681 186.728 0 396.587 186.737 0 396.494 186.752 0 
396.402 186.772 0 396.311 186.798 0 396.223 186.83 0 
396.136 186.868 0 396.052 186.911 0 395.971 186.959 0 
395.893 187.011 0 395.819 187.069 0 395.748 187.132 0 
395.682 187.198 0 395.619 187.269 0 395.561 187.343 0 
395.509 187.421 0 395.461 187.502 0 395.418 187.586 0 
395.38 187.673 0 395.348 187.761 0 395.322 187.852 0 
395.302 187.944 0 395.287 188.037 0 395.278 188.131 0 
395.275 188.225 0 395.278 188.319 0 395.287 188.413 0 
395.302 188.506 0 395.322 188.598 0 395.348 188.689 0 
395.38 188.777 0 395.418 188.864 0 395.461 188.948 0 
395.509 189.029 0 395.561 189.107 0 395.619 189.181 0 
395.682 189.252 0 395.748 189.318 0 395.819 189.381 0 
395.893 189.439 0 395.971 189.492 0 396.052 189.539 0 
396.136 189.582 0 396.223 189.62 0 396.311 189.652 0 
396.402 189.678 0 396.494 189.698 0 396.587 189.713 0 
396.681 189.722 0 314.53 97.54 0 314.624 97.537 0 
314.718 97.5282 0 314.811 97.5134 0 314.903 97.4929 0 
314.994 97.4666 0 315.082 97.4347 0 315.169 97.3972 0 
315.253 97.3545 0 315.334 97.3065 0 315.412 97.2535 0 
315.486 97.1958 0 315.557 97.1335 0 315.623 97.0668 0 
315.686 96.9961 0 315.744 96.9217 0 315.796 96.8437 0 
315.844 96.7626 0 315.887 96.6787 0 315.925 96.5922 0 
315.957 96.5035 0 315.983 96.413 0 316.003 96.3211 0 
316.018 96.228 0 316.027 96.1342 0 316.03 96.04 0 
316.027 95.9458 0 316.018 95.852 0 316.003 95.7589 0 
315.983 95.667 0 315.957 95.5765 0 315.925 95.4878 0 
315.887 95.4013 0 315.844 95.3174 0 315.796 95.2363 0 
315.744 95.1583 0 315.686 95.0839 0 315.623 95.0132 0 
315.557 94.9465 0 315.486 94.8842 0 315.412 94.8265 0 
315.334 94.7735 0 315.253 94.7255 0 315.169 94.6828 0 
315.082 94.6453 0 314.994 94.6134 0 314.903 94.5871 0 
314.811 94.5666 0 314.718 94.5518 0 314.624 94.543 0 
314.53 94.54 0 314.436 94.543 0 314.342 94.5518 0 
314.249 94.5666 0 314.157 94.5871 0 314.066 94.6134 0 
313.978 94.6453 0 313.891 94.6828 0 313.807 94.7255 0 
313.726 94.7735 0 313.648 94.8265 0 313.574 94.8842 0 
313.503 94.9465 0 313.437 95.0132 0 313.374 95.0839 0 
313.316 95.1583 0 313.264 95.2363 0 313.216 95.3174 0 
313.173 95.4013 0 313.135 95.4878 0 313.103 95.5765 0 
313.077 95.667 0 313.057 95.7589 0 313.042 95.852 0 
313.033 95.9458 0 313.03 96.04 0 313.033 96.1342 0 
313.042 96.228 0 313.057 96.3211 0 313.077 96.413 0 
313.103 96.5035 0 313.135 96.5922 0 313.173 96.6787 0 
313.216 96.7626 0 313.264 96.8437 0 313.316 96.9217 0 
313.374 96.9961 0 313.437 97.0668 0 313.503 97.1335 0 
313.574 97.1958 0 313.648 97.2535 0 313.726 97.3065 0 
313.807 97.3545 0 313.891 97.3972 0 313.978 97.4347 0 
314.066 97.4666 0 314.157 97.4929 0 314.249 97.5134 0 
314.342 97.5282 0 314.436 97.537 0 199.823 317.691 0 
199.917 317.689 0 200.011 317.68 0 200.104 317.665 0 
200.196 317.644 0 200.286 317.618 0 200.375 317.586 0 
200.462 317.549 0 200.546 317.506 0 200.627 317.458 0 
200.705 317.405 0 200.779 317.347 0 200.85 317.285 0 
200.916 317.218 0 200.979 317.148 0 201.036 317.073 0 
201.089 316.995 0 201.137 316.914 0 201.18 316.83 0 
201.218 316.744 0 201.25 316.655 0 201.276 316.565 0 
201.296 316.473 0 201.311 316.379 0 201.32 316.286 0 
201.323 316.191 0 201.32 316.097 0 201.311 316.003 0 
201.296 315.91 0 201.276 315.818 0 201.25 315.728 0 
201.218 315.639 0 201.18 315.553 0 201.137 315.469 0 
201.089 315.388 0 201.036 315.31 0 200.979 315.235 0 
200.916 315.165 0 200.85 315.098 0 200.779 315.036 0 
200.705 314.978 0 200.627 314.925 0 200.546 314.877 0 
200.462 314.834 0 200.375 314.797 0 200.286 314.765 0 
200.196 314.739 0 200.104 314.718 0 200.011 314.703 0 
199.917 314.694 0 199.823 314.691 0 199.729 314.694 0 
199.635 314.703 0 199.542 314.718 0 199.45 314.739 0 
199.359 314.765 0 199.271 314.797 0 199.184 314.834 0 
199.1 314.877 0 199.019 314.925 0 198.941 314.978 0 
198.867 315.036 0 198.796 315.098 0 198.729 315.165 0 
198.667 315.235 0 198.609 315.31 0 198.556 315.388 0 
198.508 315.469 0 198.466 315.553 0 198.428 315.639 0 
198.396 315.728 0 198.37 315.818 0 198.349 315.91 0 
198.335 316.003 0 198.326 316.097 0 198.323 316.191 0 
198.326 316.286 0 198.335 316.379 0 198.349 316.473 0 
198.37 316.565 0 198.396 316.655 0 198.428 316.744 0 
198.466 316.83 0 198.508 316.914 0 198.556 316.995 0 
198.609 317.073 0 198.667 317.148 0 198.729 317.218 0 
198.796 317.285 0 198.867 317.347 0 198.941 317.405 0 
199.019 317.458 0 199.1 317.506 0 199.184 317.549 0 
199.271 317.586 0 199.359 317.618 0 199.45 317.644 0 
199.542 317.665 0 199.635 317.68 0 199.729 317.689 0 
483.133 140.504 0 483.227 140.501 0 483.321 140.492 0 
483.414 140.477 0 483.506 140.457 0 483.597 140.43 0 
483.685 140.398 0 483.772 140.361 0 483.856 140.318 0 
483.937 140.27 0 484.015 140.217 0 484.089 140.16 0 
484.16 140.097 0 484.227 140.031 0 484.289 139.96 0 
484.347 139.885 0 484.4 139.807 0 484.448 139.726 0 
484.49 139.642 0 484.528 139.556 0 484.56 139.467 0 
484.586 139.377 0 484.607 139.285 0 484.621 139.192 0 
484.63 139.098 0 484.633 139.004 0 484.63 138.91 0 
484.621 138.816 0 484.607 138.723 0 484.586 138.631 0 
484.56 138.54 0 484.528 138.452 0 484.49 138.365 0 
484.448 138.281 0 484.4 138.2 0 484.347 138.122 0 
484.289 138.048 0 484.227 137.977 0 484.16 137.91 0 
484.089 137.848 0 484.015 137.79 0 483.937 137.737 0 
483.856 137.689 0 483.772 137.646 0 483.685 137.609 0 
483.597 137.577 0 483.506 137.551 0 483.414 137.53 0 
483.321 137.516 0 483.227 137.507 0 483.133 137.504 0 
483.039 137.507 0 482.945 137.516 0 482.852 137.53 0 
482.76 137.551 0 482.67 137.577 0 482.581 137.609 0 
482.494 137.646 0 482.41 137.689 0 482.329 137.737 0 
482.251 137.79 0 482.177 137.848 0 482.106 137.91 0 
482.04 137.977 0 481.977 138.048 0 481.92 138.122 0 
481.867 138.2 0 481.819 138.281 0 481.776 138.365 0 
481.738 138.452 0 481.707 138.54 0 481.68 138.631 0 
481.66 138.723 0 481.645 138.816 0 481.636 138.91 0 
481.633 139.004 0 481.636 139.098 0 481.645 139.192 0 
481.66 139.285 0 481.68 139.377 0 481.707 139.467 0 
481.738 139.556 0 481.776 139.642 0 481.819 139.726 0 
481.867 139.807 0 481.92 139.885 0 481.977 139.96 0 
482.04 140.031 0 482.106 140.097 0 482.177 140.16 0 
482.251 140.217 0 482.329 140.27 0 482.41 140.318 0 
482.494 140.361 0 482.581 140.398 0 482.67 140.43 0 
482.76 140.457 0 482.852 140.477 0 482.945 140.492 0 
483.039 140.501 0 405 172.345 0 405.094 172.342 0 
405.188 172.333 0 405.281 172.318 0 405.373 172.298 0 
405.464 172.271 0 405.552 172.239 0 405.639 172.202 0 
405.723 172.159 0 405.804 172.111 0 405.882 172.058 0 
405.956 172.001 0 406.027 171.938 0 406.093 171.872 0 
406.156 171.801 0 406.214 171.726 0 406.266 171.649 0 
406.314 171.567 0 406.357 171.483 0 406.395 171.397 0 
406.427 171.308 0 406.453 171.218 0 406.473 171.126 0 
406.488 171.033 0 406.497 170.939 0 406.5 170.845 0 
406.497 170.751 0 406.488 170.657 0 406.473 170.564 0 
406.453 170.472 0 406.427 170.381 0 406.395 170.293 0 
406.357 170.206 0 406.314 170.122 0 406.266 170.041 0 
406.214 169.963 0 406.156 169.889 0 406.093 169.818 0 
406.027 169.751 0 405.956 169.689 0 405.882 169.631 0 
405.804 169.578 0 405.723 169.53 0 405.639 169.488 0 
405.552 169.45 0 405.464 169.418 0 405.373 169.392 0 
405.281 169.371 0 405.188 169.357 0 405.094 169.348 0 
405 169.345 0 404.906 169.348 0 404.812 169.357 0 
404.719 169.371 0 404.627 169.392 0 404.536 169.418 0 
404.448 169.45 0 404.361 169.488 0 404.277 169.53 0 
404.196 169.578 0 404.118 169.631 0 404.044 169.689 0 
403.973 169.751 0 403.907 169.818 0 403.844 169.889 0 
403.786 169.963 0 403.734 170.041 0 403.686 170.122 0 
403.643 170.206 0 403.605 170.293 0 403.573 170.381 0 
403.547 170.472 0 403.527 170.564 0 403.512 170.657 0 
403.503 170.751 0 403.5 170.845 0 403.503 170.939 0 
403.512 171.033 0 403.527 171.126 0 403.547 171.218 0 
403.573 171.308 0 403.605 171.397 0 403.643 171.483 0 
403.686 171.567 0 403.734 171.649 0 403.786 171.726 0 
403.844 171.801 0 403.907 171.872 0 403.973 171.938 0 
404.044 172.001 0 404.118 172.058 0 404.196 172.111 0 
404.277 172.159 0 404.361 172.202 0 404.448 172.239 0 
404.536 172.271 0 404.627 172.298 0 404.719 172.318 0 
404.812 172.333 0 404.906 172.342 0 77.5036 288.457 0 
77.5978 288.454 0 77.6916 288.445 0 77.7847 288.43 0 
77.8766 288.41 0 77.9671 288.383 0 78.0558 288.351 0 
78.1423 288.314 0 78.2262 288.271 0 78.3073 288.223 0 
78.3853 288.17 0 78.4597 288.113 0 78.5304 288.05 0 
78.597 287.984 0 78.6594 287.913 0 78.7171 287.838 0 
78.7701 287.761 0 78.818 287.679 0 78.8608 287.595 0 
78.8982 287.509 0 78.9302 287.42 0 78.9565 287.33 0 
78.977 287.238 0 78.9918 287.145 0 79.0006 287.051 0 
79.0036 286.957 0 79.0006 286.863 0 78.9918 286.769 0 
78.977 286.676 0 78.9565 286.584 0 78.9302 286.493 0 
78.8982 286.405 0 78.8608 286.318 0 78.818 286.234 0 
78.7701 286.153 0 78.7171 286.075 0 78.6594 286.001 0 
78.597 285.93 0 78.5304 285.863 0 78.4597 285.801 0 
78.3853 285.743 0 78.3073 285.69 0 78.2262 285.642 0 
78.1423 285.6 0 78.0558 285.562 0 77.9671 285.53 0 
[...]
POINT_DATA 3000
SCALARS scales float
LOOKUP_TABLE default
3 3 3 3 3 3 3 3 3 
3 3 3 3 3 3 3 3 3 
3 3 3 3 3 3 3 3 3 
3 3 3 3 3 3 3 3 3 
3 3 3 3 3 3 3 3 3 
3 3 3 3 3 3 3 3 3 
3 3 3 3 3 3 3 3 3 
3 3 3 3 3 3 3 3 3 
3 3 3 3 3 3 3 3 3 
3 3 3 3 3 3 3 3 3 
3 3 3 3 3 3 3 3 3 
3 3 3 3 3 3 3 3 3 
3 3 3 3 3 3 3 3 3 
3 3 3 3 3 3 3 3 3 
3 3 3 3 3 3 3 3 3 
3 3 3 3 3 3 3 3 3 
3 3 3 3 3 3 3 3 3 
3 3 3 3 3 3 3 3 3 
3 3 3 3 3 3 3 3 3 
3 3 3 3 3 3 3 3 3 
3 3 3 3 3 3 3 3 3 
3 3 3 3 3 3 3 3 3 
3 3 3 3 3 3 3 3 3 
3 3 3 3 3 3 3 3 3 
3 3 3 3 3 3 3 3 3 
3 3 3 3 3 3 3 3 3 
3 3 3 3 3 3 3 3 3 
3 3 3 3 3 3 3 3 3 
3 3 3 3 3 3 3 3 3 
3 3 3 3 3 3 3 3 3 
3 3 3 3 3 3 3 3 3 
3 3 3 3 3 3 3 3 3 
3 3 3 3 3 3 3 3 3 
3 3 3 3 3 3 3 3 3 
3 3 3 3 3 3 3 3 3 
3 3 3 3 3 3 3 3 3 
3 3 3 3 3 3 3 3 3 
3 3 3 3 3 3 3 3 3 
3 3 3 3 3 3 3 3 3 
3 3 3 3 3 3 3 3 3 
3 3 3 3 3 3 3 3 3 
3 3 3 3 3 3 3 3 3 
3 3 3 3 3 3 3 3 3 
3 3 3 3 3 3 3 3 3 
3 3 3 3 3 3 3 3 3 
3 3 3 3 3 3 3 3 3 
3 3 3 3 3 3 3 3 3 
3 3 3 3 3 3 3 3 3 
3 3 3 3 3 3 3 3 3 
3 3 3 3 3 3 3 3 3 
3 3 3 3 3 3 3 3 3 
3 3 3 3 3 3 3 3 3 
3 3 3 3 3 3 3 3 3 
3 3 3 3 3 3 3 3 3 
3 3 3 3 3 3 3 3 3 
3 3 3 3 3 3 3 3 3 
3 3 3 3 3 3 3 3 3 
3 3 3 3 3 3 3 3 3 
3 3 3 3 3 3 3 3 3 
3 3 3 3 3 3 3 3 3 
3 3 3 3 3 3 3 3 3 
3 3 3 3 3 3 3 3 3 
3 3 3 3 3 3 3 3 3 
3 3 3 3 3 3 3 3 3 
3 3 3 3 3 3 3 3 3 
3 3 3 3 3 3 3 3 3 
3 3 3 3 3 3 3 3 3 
3 3 3 3 3 3 3 3 3 
3 3 3 3 3 3 3 3 3 
3 3 3 3 3 3 3 3 3 
3 3 3 3 3 3 3 3 3 
3 3 3 3 3 3 3 3 3 
3 3 3 3 3 3 3 3 3 
3 3 3 3 3 3 3 3 3 
3 3 3 3 3 3 3 3 3 
3 3 3 3 3 3 3 3 3 
3 3 3 3 3 3 3 3 3 
3 3 3 3 3 3 3 3 3 
3 3 3 3 3 3 3 3 3 
3 3 3 3 3 3 3 3 3 
3 3 3 3 3 3 3 3 3 
3 3 3 3 3 3 3 3 3 
3 3 3 3 3 3 3 3 3 
3 3 3 3 3 3 3 3 3 
3 3 3 3 3 3 3 3 3 
3 3 3 3 3 3 3 3 3 
3 3 3 3 3 3 3 3 3 
3 3 3 3 3 3 3 3 3 
3 3 3 3 3 3 3 3 3 
3 3 3 3 3 3 3 3 3 
3 3 3 3 3 3 3 3 3 
3 3 3 3 3 3 3 3 3 
3 3 3 3 3 3 3 3 3 
3 3 3 3 3 3 3 3 3 
3 3 3 3 3 3 3 3 3 
3 3 3 3 3 3 3 3 3 
3 3 3 3 3 3 3 3 3 
3 3 3 3 3 3 3 3 3 
3 3 3 3 3 3 3 3 3 
3 3 3 3 3 3 3 3 3 
3 3 3 3 3 3 3 3 3 
3 3 3 3 3 3 3 3 3 
3 3 3 3 3 3 3 3 3 
3 3 3 3 3 3 3 3 3 
3 3 3 3 3 3 3 3 3 
3 3 3 3 3 3 3 3 3 
3 3 3 3 3 3 3 3 3 
3 3 3 3 3 3 3 3 3 
3 3 3 3 3 3 3 3 3 
3 3 3 3 3 3 3 3 3 
3 3 3 3 3 3 3 3 3 
3 3 3 3 3 3 3 3 3 
3 3 3 3 3 3 3 3 3 
3 3 3 3 3 3 3 3 3 
3 3 3 3 3 3 3 3 3 
3 3 3 3 3 3 3 3 3 
3 3 3 3 3 3 3 3 3 
3 3 3 3 3 3 3 3 3 
3 3 3 3 3 3 3 3 3 
3 3 3 3 3 3 3 3 3 
3 3 3 3 3 3 3 3 3 
3 3 3 3 3 3 3 3 3 
3 3 3 3 3 3 3 3 3 
3 3 3 3 3 3 3 3 3 
3 3 3 3 3 3 3 3 3 
3 3 3 3 3 3 3 3 3 
3 3 3 3 3 3 3 3 3 
3 3 3 3 3 3 3 3 3 
3 3 3 3 3 3 3 3 3 
3 3 3 3 3 3 3 3 3 
3 3 3 3 3 3 3 3 3 
3 3 3 3 3 3 3 3 3 
3 3 3 3 3 3 3 3 3 
3 3 3 3 3 3 3 3 3 
3 3 3 3 3 3 3 3 3 
3 3 3 3 3 3 3 3 3 
3 3 3 3 3 3 3 3 3 
3 3 3 3 3 3 3 3 3 
3 3 3 3 3 3 3 3 3 
3 3 3 3 3 3 3 3 3 
3 3 3 3 3 3 3 3 3 
3 3 3 3 3 3 3 3 3 
3 3 3 3 3 3 3 3 3 
3 3 3 3 3 3 3 3 3 
3 3 3 3 3 3 3 3 3 
3 3 3 3 3 3 3 3 3 
3 3 3 3 3 3 3 3 3 
3 3 3 3 3 3 3 3 3 
3 3 3 3 3 3 3 3 3 
3 3 3 3 3 3 3 3 3 
3 3 3 3 3 3 3 3 3 
3 3 3 3 3 3 3 3 3 
3 3 3 3 3 3 3 3 3 
3 3 3 3 3 3 3 3 3 
3 3 3 3 3 3 3 3 3 
3 3 3 3 3 3 3 3 3 
3 3 3 3 3 3 3 3 3 
3 3 3 3 3 3 3 3 3 
3 3 3 3 3 3 3 3 3 
3 3 3 3 3 3 3 3 3 
3 3 3 3 3 3 3 3 3 
3 3 3 3 3 3 3 3 3 
3 3 3 3 3 3 3 3 3 
3 3 3 3 3 3 3 3 3 
3 3 3 3 3 3 3 3 3 
3 3 3 3 3 3 3 3 3 
3 3 3 3 3 3 3 3 3 
3 3 3 3 3 3 3 3 3 
3 3 3 3 3 3 3 3 3 
3 3 3 3 3 3 3 3 3 
3 3 3 3 3 3 3 3 3 
3 3 3 3 3 3 3 3 3 
3 3 3 3 3 3 3 3 3 
3 3 3 3 3 3 3 3 3 
3 3 3 3 3 3 3 3 3 
3 3 3 3 3 3 3 3 3 
3 3 3 3 3 3 3 3 3 
3 3 3 3 3 3 3 3 3 
3 3 3 3 3 3 3 3 3 
3 3 3 3 3 3 3 3 3 
3 3 3 3 3 3 3 3 3 
3 3 3 3 3 3 3 3 3 
3 3 3 3 3 3 3 3 3 
3 3 3 3 3 3 3 3 3 
3 3 3 3 3 3 3 3 3 
3 3 3 3 3 3 3 3 3 
3 3 3 3 3 3 3 3 3 
3 3 3 3 3 3 3 3 3 
3 3 3 3 3 3 3 3 3 
3 3 3 3 3 3 3 3 3 
3 3 3 3 3 3 3 3 3 
3 3 3 3 3 3 3 3 3 
3 3 3 3 3 3 3 3 3 
3 3 3 3 3 3 3 3 3 
3 3 3 3 3 3 3 3 3 
3 3 3 3 3 3 3 3 3 
3 3 3 3 3 3 3 3 3 
3 3 3 3 3 3 3 3 3 
3 3 3 3 3 3 3 3 3 
3 3 3 3 3 3 3 3 3 
3 3 3 3 3 3 3 3 3 
3 3 3 3 3 3 3 3 3 
3 3 3 3 3 3 3 3 3 
3 3 3 3 3 3 3 3 3 
3 3 3 3 3 3 3 3 3 
3 3 3 3 3 3 3 3 3 
3 3 3 3 3 3 3 3 3 
3 3 3 3 3 3 3 3 3 
3 3 3 3 3 3 3 3 3 
3 3 3 3 3 3 3 3 3 
3 3 3 3 3 3 3 3 3 
3 3 3 3 3 3 3 3 3 
3 3 3 3 3 3 3 3 3 
3 3 3 3 3 3 3 3 3 
3 3 3 3 3 3 3 3 3 
3 3 3 3 3 3 3 3 3 
3 3 3 3 3 3 3 3 3 
3 3 3 3 3 3 3 3 3 
3 3 3 3 3 3 3 3 3 
3 3 3 3 3 3 3 3 3 
3 3 3 3 3 3 3 3 3 
3 3 3 3 3 3 3 3 3 
3 3 3 3 3 3 3 3 3 
3 3 3 3 3 3 3 3 3 
3 3 3 3 3 3 3 3 3 
3 3 3 3 3 3 3 3 3 
3 3 3 3 3 3 3 3 3 
3 3 3 3 3 3 3 3 3 
3 3 3 3 3 3 3 3 3 
3 3 3 3 3 3 3 3 3 
3 3 3 3 3 3 3 3 3 
3 3 3 3 3 3 3 3 3 
3 3 3 3 3 3 3 3 3 
3 3 3 3 3 3 3 3 3 
3 3 3 3 3 3 3 3 3 
3 3 3 3 3 3 3 3 3 
3 3 3 3 3 3 3 3 3 
3 3 3 3 3 3 3 3 3 
3 3 3 3 3 3 3 3 3 
3 3 3 3 3 3 3 3 3 
3 3 3 3 3 3 3 3 3 
3 3 3 3 3 3 3 3 3 
3 3 3 3 3 3 3 3 3 
3 3 3 3 3 3 3 3 3 
3 3 3 3 3 3 3 3 3 
3 3 3 3 3 3 3 3 3 
3 3 3 3 3 3 3 3 3 
3 3 3 3 3 3 3 3 3 
3 3 3 3 3 3 3 3 3 
3 3 3 3 3 3 3 3 3 
3 3 3 3 3 3 3 3 3 
3 3 3 3 3 3 3 3 3 
3 3 3 3 3 3 3 3 3 
3 3 3 3 3 3 3 3 3 
3 3 3 3 3 3 3 3 3 
3 3 3 3 3 3 3 3 3 
3 3 3 3 3 3 3 3 3 
3 3 3 3 3 3 3 3 3 
3 3 3 3 3 3 3 3 3 
3 3 3 3 3 3 3 3 3 
3 3 3 3 3 3 3 3 3 
3 3 3 3 3 3 3 3 3 
3 3 3 3 3 3 3 3 3 
3 3 3 3 3 3 3 3 3 
3 3 3 3 3 3 3 3 3 
3 3 3 3 3 3 3 3 3 
3 3 3 3 3 3 3 3 3 
3 3 3 3 3 3 3 3 3 
3 3 3 3 3 3 3 3 3 
3 3 3 3 3 3 3 3 3 
3 3 3 3 3 3 3 3 3 
3 3 3 3 3 3 3 3 3 
3 3 3 3 3 3 3 3 3 
3 3 3 3 3 3 3 3 3 
3 3 3 3 3 3 3 3 3 
3 3 3 3 3 3 3 3 3 
3 3 3 3 3 3 3 3 3 
3 3 3 3 3 3 3 3 3 
3 3 3 3 3 3 3 3 3 
3 3 3 3 3 3 3 3 3 
3 3 3 3 3 3 3 3 3 
3 3 3 3 3 3 3 3 3 
3 3 3 3 3 3 3 3 3 
3 3 3 3 3 3 3 3 3 
3 3 3 3 3 3 3 3 3 
3 3 3 3 3 3 3 3 3 
3 3 3 3 3 3 3 3 3 
3 3 3 3 3 3 3 3 3 
3 3 3 3 3 3 3 3 3 
3 3 3 3 3 3 3 3 3 
3 3 3 3 3 3 3 3 3 
3 3 3 3 3 3 3 3 3 
3 3 3 3 3 3 3 3 3 
3 3 3 3 3 3 3 3 3 
3 3 3 3 3 3 3 3 3 
3 3 3 3 3 3 3 3 3 
3 3 3 3 3 3 3 3 3 
3 3 3 3 3 3 3 3 3 
3 3 3 3 3 3 3 3 3 
3 3 3 3 3 3 3 3 3 
3 3 3 3 3 3 3 3 3 
3 3 3 3 3 3 3 3 3 
3 3 3 3 3 3 3 3 3 
3 3 3 3 3 3 3 3 3 
3 3 3 3 3 3 3 3 3 
3 3 3 3 3 3 3 3 3 
3 3 3 3 3 3 3 3 3 
3 3 3 3 3 3 3 3 3 
3 3 3 3 3 3 3 3 3 
3 3 3 3 3 3 3 3 3 
3 3 3 3 3 3 3 3 3 
3 3 3 3 3 3 3 3 3 
3 3 3 3 3 3 3 3 3 
3 3 3 3 3 3 3 3 3 
3 3 3 3 3 3 3 3 3 
3 3 3 3 3 3 3 3 3 
3 3 3 3 3 3 3 3 3 
3 3 3 3 3 3 3 3 3 
3 3 3 3 3 3 3 3 3 
3 3 3 3 3 3 3 3 3 
3 3 3 3 3 3 3 3 3 
3 3 3 3 3 3 3 3 3 
3 3 3 3 3 3 3 3 3 
3 3 3 3 3 3 3 3 3 
3 3 3 3 3 3 3 3 3 
3 3 3 3 3 3 3 3 3 
3 3 3 3 3 3 3 3 3 
3 3 3 3 3 3 3 3 3 
3 3 3 3 3 3 3 3 3 
3 3 3 3 3 3 3 3 3 
3 3 3 3 3 3 3 3 3 
3 3 3 3 3 3 3 3 3 
3 3 3 3 3 3 3 3 3 
3 3 3 
FIELD FieldData 1
Colors 3 3000 unsigned_char
153 0 153 153 0 153 153 0 153 
153 0 153 153 0 153 153 0 153 
153 0 153 153 0 153 153 0 153 
153 0 153 153 0 153 153 0 153 
153 0 153 153 0 153 153 0 153 
153 0 153 153 0 153 153 0 153 
153 0 153 153 0 153 153 0 153 
153 0 153 153 0 153 153 0 153 
153 0 153 153 0 153 153 0 153 
153 0 153 153 0 153 153 0 153 
153 0 153 153 0 153 153 0 153 
153 0 153 153 0 153 153 0 153 
153 0 153 153 0 153 153 0 153 
153 0 153 153 0 153 153 0 153 
153 0 153 153 0 153 153 0 153 
153 0 153 153 0 153 153 0 153 
153 0 153 153 0 153 153 0 153 
153 0 153 153 0 153 153 0 153 
153 0 153 153 0 153 153 0 153 
153 0 153 153 0 153 153 0 153 
153 0 153 153 0 153 153 0 153 
153 0 153 153 0 153 153 0 153 
153 0 153 153 0 153 153 0 153 
153 0 153 153 0 153 153 0 153 
153 0 153 153 0 153 153 0 153 
153 0 153 153 0 153 153 0 153 
153 0 153 153 0 153 153 0 153 
153 0 153 153 0 153 153 0 153 
153 0 153 153 0 153 153 0 153 
153 0 153 153 0 153 153 0 153 
153 0 153 153 0 153 153 0 153 
153 0 153 153 0 153 153 0 153 
153 0 153 153 0 153 153 0 153 
153 0 153 153 0 153 153 0 153 
153 0 153 153 0 153 153 0 153 
153 0 153 153 0 153 153 0 153 
153 0 153 153 0 153 153 0 153 
153 0 153 153 0 153 153 0 153 
153 0 153 153 0 153 153 0 153 
153 0 153 153 0 153 153 0 153 
153 0 153 153 0 153 153 0 153 
153 0 153 153 0 153 153 0 153 
153 0 153 153 0 153 153 0 153 
153 0 153 153 0 153 153 0 153 
153 0 153 153 0 153 153 0 153 
153 0 153 153 0 153 153 0 153 
153 0 153 153 0 153 153 0 153 
153 0 153 153 0 153 153 0 153 
153 0 153 153 0 153 153 0 153 
153 0 153 153 0 153 153 0 153 
153 0 153 153 0 153 153 0 153 
153 0 153 153 0 153 153 0 153 
153 0 153 153 0 153 153 0 153 
153 0 153 153 0 153 153 0 153 
153 0 153 153 0 153 153 0 153 
153 0 153 153 0 153 153 0 153 
153 0 153 153 0 153 153 0 153 
153 0 153 153 0 153 153 0 153 
153 0 153 153 0 153 153 0 153 
153 0 153 153 0 153 153 0 153 
153 0 153 153 0 153 153 0 153 
153 0 153 153 0 153 153 0 153 
153 0 153 153 0 153 153 0 153 
153 0 153 153 0 153 153 0 153 
153 0 153 153 0 153 153 0 153 
153 0 153 153 0 153 153 0 153 
153 0 153 153 0 153 153 0 153 
153 0 153 153 0 153 153 0 153 
153 0 153 153 0 153 153 0 153 
153 0 153 153 0 153 153 0 153 
153 0 153 153 0 153 153 0 153 
153 0 153 153 0 153 153 0 153 
153 0 153 153 0 153 153 0 153 
153 0 153 153 0 153 153 0 153 
153 0 153 153 0 153 153 0 153 
153 0 153 153 0 153 153 0 153 
153 0 153 153 0 153 153 0 153 
153 0 153 153 0 153 153 0 153 
153 0 153 153 0 153 153 0 153 
153 0 153 153 0 153 153 0 153 
153 0 153 153 0 153 153 0 153 
153 0 153 153 0 153 153 0 153 
153 0 153 153 0 153 153 0 153 
153 0 153 153 0 153 153 0 153 
153 0 153 153 0 153 153 0 153 
153 0 153 153 0 153 153 0 153 
153 0 153 153 0 153 153 0 153 
153 0 153 153 0 153 153 0 153 
153 0 153 153 0 153 153 0 153 
153 0 153 153 0 153 153 0 153 
153 0 153 153 0 153 153 0 153 
153 0 153 153 0 153 153 0 153 
153 0 153 153 0 153 153 0 153 
153 0 153 153 0 153 153 0 153 
153 0 153 153 0 153 153 0 153 
153 0 153 153 0 153 153 0 153 
153 0 153 153 0 153 153 0 153 
153 0 153 153 0 153 153 0 153 
153 0 153 153 0 153 153 0 153 
153 0 153 153 0 153 153 0 153 
153 0 153 153 0 153 153 0 153 
153 0 153 153 0 153 153 0 153 
153 0 153 153 0 153 153 0 153 
153 0 153 153 0 153 153 0 153 
153 0 153 153 0 153 153 0 153 
153 0 153 153 0 153 153 0 153 
153 0 153 153 0 153 153 0 153 
153 0 153 153 0 153 153 0 153 
153 0 153 153 0 153 153 0 153 
153 0 153 153 0 153 153 0 153 
153 0 153 153 0 153 153 0 153 
153 0 153 153 0 153 153 0 153 
153 0 153 153 0 153 153 0 153 
153 0 153 153 0 153 153 0 153 
153 0 153 153 0 153 153 0 153 
153 0 153 153 0 153 153 0 153 
153 0 153 153 0 153 153 0 153 
153 0 153 153 0 153 153 0 153 
153 0 153 153 0 153 153 0 153 
153 0 153 153 0 153 153 0 153 
153 0 153 153 0 153 153 0 153 
153 0 153 153 0 153 153 0 153 
153 0 153 153 0 153 153 0 153 
153 0 153 153 0 153 153 0 153 
153 0 153 153 0 153 153 0 153 
153 0 153 153 0 153 153 0 153 
153 0 153 153 0 153 153 0 153 
153 0 153 153 0 153 153 0 153 
153 0 153 153 0 153 153 0 153 
153 0 153 153 0 153 153 0 153 
153 0 153 153 0 153 153 0 153 
153 0 153 153 0 153 153 0 153 
153 0 153 153 0 153 153 0 153 
153 0 153 153 0 153 153 0 153 
153 0 153 153 0 153 153 0 153 
153 0 153 153 0 153 153 0 153 
153 0 153 153 0 153 153 0 153 
153 0 153 153 0 153 153 0 153 
153 0 153 153 0 153 153 0 153 
153 0 153 153 0 153 153 0 153 
153 0 153 153 0 153 153 0 153 
153 0 153 153 0 153 153 0 153 
153 0 153 153 0 153 153 0 153 
153 0 153 153 0 153 153 0 153 
153 0 153 153 0 153 153 0 153 
153 0 153 153 0 153 153 0 153 
153 0 153 153 0 153 153 0 153 
153 0 153 153 0 153 153 0 153 
153 0 153 153 0 153 153 0 153 
153 0 153 153 0 153 153 0 153 
153 0 153 153 0 153 153 0 153 
153 0 153 153 0 153 153 0 153 
153 0 153 153 0 153 153 0 153 
153 0 153 153 0 153 153 0 153 
153 0 153 153 0 153 153 0 153 
153 0 153 153 0 153 153 0 153 
153 0 153 153 0 153 153 0 153 
153 0 153 153 0 153 153 0 153 
153 0 153 153 0 153 153 0 153 
153 0 153 153 0 153 153 0 153 
153 0 153 153 0 153 153 0 153 
153 0 153 153 0 153 153 0 153 
153 0 153 153 0 153 153 0 153 
153 0 153 153 0 153 153 0 153 
153 0 153 153 0 153 153 0 153 
153 0 153 153 0 153 153 0 153 
153 0 153 153 0 153 153 0 153 
153 0 153 153 0 153 153 0 153 
153 0 153 153 0 153 153 0 153 
153 0 153 153 0 153 153 0 153 
153 0 153 153 0 153 153 0 153 
153 0 153 153 0 153 153 0 153 
153 0 153 153 0 153 153 0 153 
153 0 153 153 0 153 153 0 153 
153 0 153 153 0 153 153 0 153 
153 0 153 153 0 153 153 0 153 
153 0 153 153 0 153 153 0 153 
153 0 153 153 0 153 153 0 153 
153 0 153 153 0 153 153 0 153 
153 0 153 153 0 153 153 0 153 
153 0 153 153 0 153 153 0 153 
153 0 153 153 0 153 153 0 153 
153 0 153 153 0 153 153 0 153 
153 0 153 153 0 153 153 0 153 
153 0 153 153 0 153 153 0 153 
153 0 153 153 0 153 153 0 153 
153 0 153 153 0 153 153 0 153 
153 0 153 153 0 153 153 0 153 
153 0 153 153 0 153 153 0 153 
153 0 153 153 0 153 153 0 153 
153 0 153 153 0 153 153 0 153 
153 0 153 153 0 153 153 0 153 
153 0 153 153 0 153 153 0 153 
153 0 153 153 0 153 153 0 153 
153 0 153 153 0 153 153 0 153 
153 0 153 153 0 153 153 0 153 
153 0 153 153 0 153 153 0 153 
153 0 153 153 0 153 153 0 153 
153 0 153 153 0 153 153 0 153 
153 0 153 153 0 153 153 0 153 
153 0 153 153 0 153 153 0 153 
153 0 153 153 0 153 153 0 153 
153 0 153 153 0 153 153 0 153 
153 0 153 153 0 153 153 0 153 
153 0 153 153 0 153 153 0 153 
153 0 153 153 0 153 153 0 153 
153 0 153 153 0 153 153 0 153 
153 0 153 153 0 153 153 0 153 
153 0 153 153 0 153 153 0 153 
153 0 153 153 0 153 153 0 153 
153 0 153 153 0 153 153 0 153 
153 0 153 153 0 153 153 0 153 
153 0 153 153 0 153 153 0 153 
153 0 153 153 0 153 153 0 153 
153 0 153 153 0 153 153 0 153 
153 0 153 153 0 153 153 0 153 
153 0 153 153 0 153 153 0 153 
153 0 153 153 0 153 153 0 153 
153 0 153 153 0 153 153 0 153 
153 0 153 153 0 153 153 0 153 
153 0 153 153 0 153 153 0 153 
153 0 153 153 0 153 153 0 153 
153 0 153 153 0 153 153 0 153 
153 0 153 153 0 153 153 0 153 
153 0 153 153 0 153 153 0 153 
153 0 153 153 0 153 153 0 153 
153 0 153 153 0 153 153 0 153 
153 0 153 153 0 153 153 0 153 
153 0 153 153 0 153 153 0 153 
153 0 153 153 0 153 153 0 153 
153 0 153 153 0 153 153 0 153 
153 0 153 153 0 153 153 0 153 
153 0 153 153 0 153 153 0 153 
153 0 153 153 0 153 153 0 153 
153 0 153 153 0 153 153 0 153 
153 0 153 153 0 153 153 0 153 
153 0 153 153 0 153 153 0 153 
153 0 153 153 0 153 153 0 153 
153 0 153 153 0 153 153 0 153 
153 0 153 153 0 153 153 0 153 
153 0 153 153 0 153 153 0 153 
153 0 153 153 0 153 153 0 153 
153 0 153 153 0 153 153 0 153 
153 0 153 153 0 153 153 0 153 
153 0 153 153 0 153 153 0 153 
153 0 153 153 0 153 153 0 153 
153 0 153 153 0 153 153 0 153 
153 0 153 153 0 153 153 0 153 
153 0 153 153 0 153 153 0 153 
153 0 153 153 0 153 153 0 153 
153 0 153 153 0 153 153 0 153 
153 0 153 153 0 153 153 0 153 
153 0 153 153 0 153 153 0 153 
153 0 153 153 0 153 153 0 153 
153 0 153 153 0 153 153 0 153 
153 0 153 153 0 153 153 0 153 
153 0 153 153 0 153 153 0 153 
153 0 153 153 0 153 153 0 153 
153 0 153 153 0 153 153 0 153 
153 0 153 153 0 153 153 0 153 
153 0 153 153 0 153 153 0 153 
153 0 153 153 0 153 153 0 153 
153 0 153 153 0 153 153 0 153 
153 0 153 153 0 153 153 0 153 
153 0 153 153 0 153 153 0 153 
153 0 153 153 0 153 153 0 153 
153 0 153 153 0 153 153 0 153 
153 0 153 153 0 153 153 0 153 
153 0 153 153 0 153 153 0 153 
153 0 153 153 0 153 153 0 153 
153 0 153 153 0 153 153 0 153 
153 0 153 153 0 153 153 0 153 
153 0 153 153 0 153 153 0 153 
153 0 153 153 0 153 153 0 153 
153 0 153 153 0 153 153 0 153 
153 0 153 153 0 153 153 0 153 
153 0 153 153 0 153 153 0 153 
153 0 153 153 0 153 153 0 153 
153 0 153 153 0 153 153 0 153 
153 0 153 153 0 153 153 0 153 
153 0 153 153 0 153 153 0 153 
153 0 153 153 0 153 153 0 153 
153 0 153 153 0 153 153 0 153 
153 0 153 153 0 153 153 0 153 
153 0 153 153 0 153 153 0 153 
153 0 153 153 0 153 153 0 153 
153 0 153 153 0 153 153 0 153 
153 0 153 153 0 153 153 0 153 
153 0 153 153 0 153 153 0 153 
153 0 153 153 0 153 153 0 153 
153 0 153 153 0 153 153 0 153 
153 0 153 153 0 153 153 0 153 
153 0 153 153 0 153 153 0 153 
153 0 153 153 0 153 153 0 153 
153 0 153 153 0 153 153 0 153 
153 0 153 153 0 153 153 0 153 
153 0 153 153 0 153 153 0 153 
153 0 153 153 0 153 153 0 153 
153 0 153 153 0 153 153 0 153 
153 0 153 153 0 153 153 0 153 
153 0 153 153 0 153 153 0 153 
153 0 153 153 0 153 153 0 153 
153 0 153 153 0 153 153 0 153 
153 0 153 153 0 153 153 0 153 
153 0 153 153 0 153 153 0 153 
153 0 153 153 0 153 153 0 153 
153 0 153 153 0 153 153 0 153 
153 0 153 153 0 153 153 0 153 
153 0 153 153 0 153 153 0 153 
153 0 153 153 0 153 153 0 153 
153 0 153 153 0 153 153 0 153 
153 0 153 153 0 153 153 0 153 
153 0 153 153 0 153 153 0 153 
153 0 153 153 0 153 153 0 153 
153 0 153 153 0 153 153 0 153 
153 0 153 153 0 153 153 0 153 
153 0 153 153 0 153 153 0 153 
153 0 153 153 0 153 153 0 153 
153 0 153 153 0 153 153 0 153 
153 0 153 153 0 153 153 0 153 
153 0 153 153 0 153 153 0 153 
153 0 153 153 0 153 153 0 153 
153 0 153 153 0 153 153 0 153 
153 0 153 153 0 153 153 0 153 
153 0 153 153 0 153 153 0 153 
153 0 153 153 0 153 153 0 153 
153 0 153 153 0 153 153 0 153 
153 0 153 153 0 153 153 0 153 
153 0 153 153 0 153 153 0 153 
153 0 153 153 0 153 153 0 153 
153 0 153 153 0 153 153 0 153 
153 0 153 153 0 153 153 0 153 
153 0 153 153 0 153 153 0 153 
153 0 153 153 0 153 153 0 153 
153 0 153 153 0 153 153 0 153 
153 0 153 153 0 153 153 0 153 
153 0 153 153 0 153 153 0 153 
153 0 153 153 0 153 153 0 153 
153 0 153 153 0 153 153 0 153 
153 0 153 153 0 153 153 0 153 
153 0 153 153 0 153 153 0 153 
153 0 153 153 0 153 153 0 153 
153 0 153 153 0 153 153 0 153 
153 0 153 153 0 153 153 0 153 
153 0 153 153 0 153 153 0 153 
153 0 153 153 0 153 153 0 153 
153 0 153 153 0 153 153 0 153 
153 0 153 153 0 153 153 0 153 
153 0 153 153 0 153 153 0 153 
153 0 153 153 0 153 153 0 153 
153 0 153 153 0 153 153 0 153 
153 0 153 153 0 153 153 0 153 
153 0 153 153 0 153 153 0 153 
153 0 153 153 0 153 153 0 153 
153 0 153 153 0 153 153 0 153 
153 0 153 153 0 153 153 0 153 
153 0 153 153 0 153 153 0 153 
153 0 153 153 0 153 153 0 153 
153 0 153 153 0 153 153 0 153 
153 0 153 153 0 153 153 0 153 
153 0 153 153 0 153 153 0 153 
153 0 153 153 0 153 153 0 153 
153 0 153 153 0 153 153 0 153 
153 0 153 153 0 153 153 0 153 
153 0 153 153 0 153 153 0 153 
153 0 153 153 0 153 153 0 153 
153 0 153 153 0 153 153 0 153 
153 0 153 153 0 153 153 0 153 
153 0 153 153 0 153 153 0 153 
153 0 153 153 0 153 153 0 153 
153 0 153 153 0 153 153 0 153 
153 0 153 153 0 153 153 0 153 
153 0 153 153 0 153 153 0 153 
153 0 153 153 0 153 153 0 153 
153 0 153 153 0 153 153 0 153 
153 0 153 153 0 153 153 0 153 
153 0 153 153 0 153 153 0 153 
153 0 153 153 0 153 153 0 153 
153 0 153 153 0 153 153 0 153 
153 0 153 153 0 153 153 0 153 
153 0 153 153 0 153 153 0 153 
153 0 153 153 0 153 153 0 153 
153 0 153 153 0 153 153 0 153 
153 0 153 153 0 153 153 0 153 
153 0 153 153 0 153 153 0 153 
153 0 153 153 0 153 153 0 153 
153 0 153 153 0 153 153 0 153 
153 0 153 153 0 153 153 0 153 
153 0 153 153 0 153 153 0 153 
153 0 153 153 0 153 153 0 153 
153 0 153 153 0 153 153 0 153 
153 0 153 153 0 153 153 0 153 
153 0 153 153 0 153 153 0 153 
153 0 153 153 0 153 153 0 153 
153 0 153 153 0 153 153 0 153 
153 0 153 153 0 153 153 0 153 
153 0 153 153 0 153 153 0 153 
153 0 153 153 0 153 153 0 153 
153 0 153 153 0 153 153 0 153 
153 0 153 153 0 153 153 0 153 
153 0 153 153 0 153 153 0 153 
153 0 153 153 0 153 153 0 153 
153 0 153 153 0 153 153 0 153 
153 0 153 153 0 153 153 0 153 
153 0 153 153 0 153 153 0 153 
153 0 153 153 0 153 153 0 153 
153 0 153 153 0 153 153 0 153 
153 0 153 153 0 153 153 0 153 
153 0 153 153 0 153 153 0 153 
153 0 153 153 0 153 153 0 153 
153 0 153 153 0 153 153 0 153 
153 0 153 153 0 153 153 0 153 
153 0 153 153 0 153 153 0 153 
153 0 153 153 0 153 153 0 153 
153 0 153 153 0 153 153 0 153 
153 0 153 153 0 153 153 0 153 
153 0 153 153 0 153 153 0 153 
153 0 153 153 0 153 153 0 153 
153 0 153 153 0 153 153 0 153 
153 0 153 153 0 153 153 0 153 
153 0 153 153 0 153 153 0 153 
153 0 153 153 0 153 153 0 153 
153 0 153 153 0 153 153 0 153 
153 0 153 153 0 153 153 0 153 
153 0 153 153 0 153 153 0 153 
153 0 153 153 0 153 153 0 153 
153 0 153 153 0 153 153 0 153 
153 0 153 153 0 153 153 0 153 
153 0 153 153 0 153 153 0 153 
153 0 153 153 0 153 153 0 153 
153 0 153 153 0 153 153 0 153 
153 0 153 153 0 153 153 0 153 
153 0 153 153 0 153 153 0 153 
153 0 153 153 0 153 153 0 153 
153 0 153 153 0 153 153 0 153 
153 0 153 153 0 153 153 0 153 
153 0 153 153 0 153 153 0 153 