# vtk DataFile Version 3.0
vtk output
ASCII
DATASET POLYDATA
POINTS 3000 float
396.775 189.225 0 396.838 189.223 0 396.9 189.217 0 
396.962 189.207 0 397.024 189.194 0 397.084 189.176 0 
397.143 189.155 0 397.201 189.13 0 397.257 189.101 0 
397.311 189.069 0 397.363 189.034 0 397.412 188.996 0 
397.46 188.954 0 397.504 188.91 0 397.546 188.862 0 
397.584 188.813 0 397.619 188.761 0 397.651 188.707 0 
397.68 188.651 0 397.705 188.593 0 397.726 188.534 0 
397.744 188.474 0 397.757 188.412 0 397.767 188.35 0 
397.773 188.288 0 397.775 188.225 0 397.773 188.162 0 
397.767 188.1 0 397.757 188.038 0 397.744 187.976 0 
397.726 187.916 0 397.705 187.857 0 397.68 187.799 0 
397.651 187.743 0 397.619 187.689 0 397.584 187.637 0 
397.546 187.588 0 397.504 187.54 0 397.46 187.496 0 
397.412 187.454 0 397.363 187.416 0 397.311 187.381 0 
397.257 187.349 0 397.201 187.32 0 397.143 187.295 0 
397.084 187.274 0 397.024 187.256 0 396.962 187.243 0 
396.9 187.233 0 396.838 187.227 0 396.775 187.225 0 
396.712 187.227 0 396.65 187.233 0 396.588 187.243 0 
396.526 187.256 0 396.466 187.274 0 396.407 187.295 0 
396.349 187.32 0 396.293 187.349 0 396.239 187.381 0 
396.187 187.416 0 396.138 187.454 0 396.09 187.496 0 
396.046 187.54 0 396.004 187.588 0 395.966 187.637 0 
395.931 187.689 0 395.899 187.743 0 395.87 187.799 0 
395.845 187.857 0 395.824 187.916 0 395.806 187.976 0 
395.793 188.038 0 395.783 188.1 0 395.777 188.162 0 
395.775 188.225 0 395.777 188.288 0 395.783 188.35 0 
395.793 188.412 0 395.806 188.474 0 395.824 188.534 0 
395.845 188.593 0 395.87 188.651 0 395.899 188.707 0 
395.931 188.761 0 395.966 188.813 0 396.004 188.862 0 
396.046 188.91 0 396.09 188.954 0 396.138 188.996 0 
396.187 189.034 0 396.239 189.069 0 396.293 189.101 0 
396.349 189.13 0 396.407 189.155 0 396.466 189.176 0 
396.526 189.194 0 396.588 189.207 0 396.65 189.217 0 
396.712 189.223 0 314.53 97.04 0 314.593 97.038 0 
314.655 97.0321 0 314.717 97.0223 0 314.779 97.0086 0 
314.839 96.9911 0 314.898 96.9698 0 314.956 96.9448 0 
315.012 96.9163 0 315.066 96.8843 0 315.118 96.849 0 
315.167 96.8105 0 315.215 96.769 0 315.259 96.7245 0 
315.301 96.6774 0 315.339 96.6278 0 315.374 96.5758 0 
315.406 96.5218 0 315.435 96.4658 0 315.46 96.4081 0 
315.481 96.349 0 315.499 96.2887 0 315.512 96.2274 0 
315.522 96.1653 0 315.528 96.1028 0 315.53 96.04 0 
315.528 95.9772 0 315.522 95.9147 0 315.512 95.8526 0 
315.499 95.7913 0 315.481 95.731 0 315.46 95.6719 0 
315.435 95.6142 0 315.406 95.5583 0 315.374 95.5042 0 
315.339 95.4522 0 315.301 95.4026 0 315.259 95.3555 0 
315.215 95.311 0 315.167 95.2695 0 315.118 95.231 0 
315.066 95.1957 0 315.012 95.1637 0 314.956 95.1352 0 
314.898 95.1102 0 314.839 95.0889 0 314.779 95.0714 0 
314.717 95.0577 0 314.655 95.0479 0 314.593 95.042 0 
314.53 95.04 0 314.467 95.042 0 314.405 95.0479 0 
314.343 95.0577 0 314.281 95.0714 0 314.221 95.0889 0 
314.162 95.1102 0 314.104 95.1352 0 314.048 95.1637 0 
313.994 95.1957 0 313.942 95.231 0 313.893 95.2695 0 
313.845 95.311 0 313.801 95.3555 0 313.759 95.4026 0 
313.721 95.4522 0 313.686 95.5042 0 313.654 95.5583 0 
313.625 95.6142 0 313.6 95.6719 0 313.579 95.731 0 
313.561 95.7913 0 313.548 95.8526 0 313.538 95.9147 0 
313.532 95.9772 0 313.53 96.04 0 313.532 96.1028 0 
313.538 96.1653 0 313.548 96.2274 0 313.561 96.2887 0 
313.579 96.349 0 313.6 96.4081 0 313.625 96.4658 0 
313.654 96.5218 0 313.686 96.5758 0 313.721 96.6278 0 
313.759 96.6774 0 313.801 96.7245 0 313.845 96.769 0 
313.893 96.8105 0 313.942 96.849 0 313.994 96.8843 0 
314.048 96.9163 0 314.104 96.9448 0 314.162 96.9698 0 
314.221 96.9911 0 314.281 97.0086 0 314.343 97.0223 0 
314.405 97.0321 0 314.467 97.038 0 199.823 317.191 0 
199.886 317.189 0 199.948 317.184 0 200.01 317.174 0 
200.072 317.16 0 200.132 317.143 0 200.191 317.121 0 
200.249 317.096 0 200.305 317.068 0 200.359 317.036 0 
200.411 317 0 200.46 316.962 0 200.507 316.92 0 
200.552 316.876 0 200.593 316.829 0 200.632 316.779 0 
200.667 316.727 0 200.699 316.673 0 200.728 316.617 0 
200.753 316.56 0 200.774 316.5 0 200.792 316.44 0 
200.805 316.379 0 200.815 316.317 0 200.821 316.254 0 
200.823 316.191 0 200.821 316.129 0 200.815 316.066 0 
200.805 316.004 0 200.792 315.943 0 200.774 315.882 0 
200.753 315.823 0 200.728 315.766 0 200.699 315.71 0 
200.667 315.656 0 200.632 315.604 0 200.593 315.554 0 
200.552 315.507 0 200.507 315.462 0 200.46 315.421 0 
200.411 315.382 0 200.359 315.347 0 200.305 315.315 0 
200.249 315.287 0 200.191 315.262 0 200.132 315.24 0 
200.072 315.223 0 200.01 315.209 0 199.948 315.199 0 
199.886 315.193 0 199.823 315.191 0 199.76 315.193 0 
199.698 315.199 0 199.636 315.209 0 199.574 315.223 0 
199.514 315.24 0 199.455 315.262 0 199.397 315.287 0 
199.341 315.315 0 199.287 315.347 0 199.235 315.382 0 
199.186 315.421 0 199.138 315.462 0 199.094 315.507 0 
199.052 315.554 0 199.014 315.604 0 198.979 315.656 0 
198.947 315.71 0 198.918 315.766 0 198.893 315.823 0 
198.872 315.882 0 198.854 315.943 0 198.841 316.004 0 
198.831 316.066 0 198.825 316.129 0 198.823 316.191 0 
198.825 316.254 0 198.831 316.317 0 198.841 316.379 0 
198.854 316.44 0 198.872 316.5 0 198.893 316.56 0 
198.918 316.617 0 198.947 316.673 0 198.979 316.727 0 
199.014 316.779 0 199.052 316.829 0 199.094 316.876 0 
199.138 316.92 0 199.186 316.962 0 199.235 317 0 
199.287 317.036 0 199.341 317.068 0 199.397 317.096 0 
199.455 317.121 0 199.514 317.143 0 199.574 317.16 0 
199.636 317.174 0 199.698 317.184 0 199.76 317.189 0 
483.133 140.004 0 483.196 140.002 0 483.258 139.996 0 
483.32 139.986 0 483.382 139.972 0 483.442 139.955 0 
483.501 139.934 0 483.559 139.909 0 483.615 139.88 0 
483.669 139.848 0 483.721 139.813 0 483.771 139.774 0 
483.818 139.733 0 483.862 139.688 0 483.904 139.641 0 
483.942 139.592 0 483.977 139.54 0 484.009 139.485 0 
484.038 139.43 0 484.063 139.372 0 484.084 139.313 0 
484.102 139.252 0 484.115 139.191 0 484.125 139.129 0 
484.131 139.067 0 484.133 139.004 0 484.131 138.941 0 
484.125 138.878 0 484.115 138.816 0 484.102 138.755 0 
484.084 138.695 0 484.063 138.636 0 484.038 138.578 0 
484.009 138.522 0 483.977 138.468 0 483.942 138.416 0 
483.904 138.366 0 483.862 138.319 0 483.818 138.275 0 
483.771 138.233 0 483.721 138.195 0 483.669 138.159 0 
483.615 138.127 0 483.559 138.099 0 483.501 138.074 0 
483.442 138.053 0 483.382 138.035 0 483.32 138.021 0 
483.258 138.012 0 483.196 138.006 0 483.133 138.004 0 
483.07 138.006 0 483.008 138.012 0 482.946 138.021 0 
482.884 138.035 0 482.824 138.053 0 482.765 138.074 0 
482.707 138.099 0 482.651 138.127 0 482.597 138.159 0 
482.545 138.195 0 482.496 138.233 0 482.449 138.275 0 
482.404 138.319 0 482.363 138.366 0 482.324 138.416 0 
482.289 138.468 0 482.257 138.522 0 482.228 138.578 0 
482.203 138.636 0 482.182 138.695 0 482.164 138.755 0 
482.151 138.816 0 482.141 138.878 0 482.135 138.941 0 
482.133 139.004 0 482.135 139.067 0 482.141 139.129 0 
482.151 139.191 0 482.164 139.252 0 482.182 139.313 0 
482.203 139.372 0 482.228 139.43 0 482.257 139.485 0 
482.289 139.54 0 482.324 139.592 0 482.363 139.641 0 
482.404 139.688 0 482.449 139.733 0 482.496 139.774 0 
482.545 139.813 0 482.597 139.848 0 482.651 139.88 0 
482.707 139.909 0 482.765 139.934 0 482.824 139.955 0 
482.884 139.972 0 482.946 139.986 0 483.008 139.996 0 
483.07 140.002 0 405 171.845 0 405.063 171.843 0 
405.125 171.837 0 405.187 171.827 0 405.249 171.813 0 
405.309 171.796 0 405.368 171.775 0 405.426 171.75 0 
405.482 171.721 0 405.536 171.689 0 405.588 171.654 0 
405.637 171.615 0 405.685 171.574 0 405.729 171.529 0 
405.771 171.482 0 405.809 171.433 0 405.844 171.381 0 
405.876 171.327 0 405.905 171.271 0 405.93 171.213 0 
405.951 171.154 0 405.969 171.093 0 405.982 171.032 0 
405.992 170.97 0 405.998 170.908 0 406 170.845 0 
405.998 170.782 0 405.992 170.719 0 405.982 170.657 0 
405.969 170.596 0 405.951 170.536 0 405.93 170.477 0 
405.905 170.419 0 405.876 170.363 0 405.844 170.309 0 
405.809 170.257 0 405.771 170.207 0 405.729 170.16 0 
405.685 170.116 0 405.637 170.074 0 405.588 170.036 0 
405.536 170 0 405.482 169.968 0 405.426 169.94 0 
405.368 169.915 0 405.309 169.894 0 405.249 169.876 0 
405.187 169.863 0 405.125 169.853 0 405.063 169.847 0 
405 169.845 0 404.937 169.847 0 404.875 169.853 0 
404.813 169.863 0 404.751 169.876 0 404.691 169.894 0 
404.632 169.915 0 404.574 169.94 0 404.518 169.968 0 
404.464 170 0 404.412 170.036 0 404.363 170.074 0 
404.315 170.116 0 404.271 170.16 0 404.229 170.207 0 
404.191 170.257 0 404.156 170.309 0 404.124 170.363 0 
404.095 170.419 0 404.07 170.477 0 404.049 170.536 0 
404.031 170.596 0 404.018 170.657 0 404.008 170.719 0 
404.002 170.782 0 404 170.845 0 404.002 170.908 0 
404.008 170.97 0 404.018 171.032 0 404.031 171.093 0 
404.049 171.154 0 404.07 171.213 0 404.095 171.271 0 
404.124 171.327 0 404.156 171.381 0 404.191 171.433 0 
404.229 171.482 0 404.271 171.529 0 404.315 171.574 0 
404.363 171.615 0 404.412 171.654 0 404.464 171.689 0 
404.518 171.721 0 404.574 171.75 0 404.632 171.775 0 
404.691 171.796 0 404.751 171.813 0 404.813 171.827 0 
404.875 171.837 0 404.937 171.843 0 77.5036 287.957 0 
77.5664 287.955 0 77.6289 287.949 0 77.691 287.939 0 
77.7523 287.925 0 77.8126 287.908 0 77.8717 287.887 0 
77.9294 287.862 0 77.9853 287.833 0 78.0394 287.801 0 
78.0914 287.766 0 78.141 287.727 0 78.1881 287.686 0 
78.2326 287.641 0 78.2741 287.594 0 78.3126 287.545 0 
78.3479 287.493 0 78.3799 287.439 0 78.4084 287.383 0 
78.4334 287.325 0 78.4546 287.266 0 78.4722 287.205 0 
78.4859 287.144 0 78.4957 287.082 0 78.5016 287.02 0 
78.5036 286.957 0 78.5016 286.894 0 78.4957 286.831 0 
78.4859 286.769 0 78.4722 286.708 0 78.4546 286.648 0 
78.4334 286.589 0 78.4084 286.531 0 78.3799 286.475 0 
78.3479 286.421 0 78.3126 286.369 0 78.2741 286.319 0 
78.2326 286.272 0 78.1881 286.228 0 78.141 286.186 0 
78.0914 286.148 0 78.0394 286.112 0 77.9853 286.08 0 
77.9294 286.052 0 77.8717 286.027 0 77.8126 286.006 0 
77.7523 285.988 0 77.691 285.974 0 77.6289 285.965 0 
[...]
POINT_DATA 3000
SCALARS scales float
LOOKUP_TABLE default
2 2 2 2 2 2 2 2 2 
2 2 2 2 2 2 2 2 2 
2 2 2 2 2 2 2 2 2 
2 2 2 2 2 2 2 2 2 
2 2 2 2 2 2 2 2 2 
2 2 2 2 2 2 2 2 2 
2 2 2 2 2 2 2 2 2 
2 2 2 2 2 2 2 2 2 
2 2 2 2 2 2 2 2 2 
2 2 2 2 2 2 2 2 2 
2 2 2 2 2 2 2 2 2 
2 2 2 2 2 2 2 2 2 
2 2 2 2 2 2 2 2 2 
2 2 2 2 2 2 2 2 2 
2 2 2 2 2 2 2 2 2 
2 2 2 2 2 2 2 2 2 
2 2 2 2 2 2 2 2 2 
2 2 2 2 2 2 2 2 2 
2 2 2 2 2 2 2 2 2 
2 2 2 2 2 2 2 2 2 
2 2 2 2 2 2 2 2 2 
2 2 2 2 2 2 2 2 2 
2 2 2 2 2 2 2 2 2 
2 2 2 2 2 2 2 2 2 
2 2 2 2 2 2 2 2 2 
2 2 2 2 2 2 2 2 2 
2 2 2 2 2 2 2 2 2 
2 2 2 2 2 2 2 2 2 
2 2 2 2 2 2 2 2 2 
2 2 2 2 2 2 2 2 2 
2 2 2 2 2 2 2 2 2 
2 2 2 2 2 2 2 2 2 
2 2 2 2 2 2 2 2 2 
2 2 2 2 2 2 2 2 2 
2 2 2 2 2 2 2 2 2 
2 2 2 2 2 2 2 2 2 
2 2 2 2 2 2 2 2 2 
2 2 2 2 2 2 2 2 2 
2 2 2 2 2 2 2 2 2 
2 2 2 2 2 2 2 2 2 
2 2 2 2 2 2 2 2 2 
2 2 2 2 2 2 2 2 2 
2 2 2 2 2 2 2 2 2 
2 2 2 2 2 2 2 2 2 
2 2 2 2 2 2 2 2 2 
2 2 2 2 2 2 2 2 2 
2 2 2 2 2 2 2 2 2 
2 2 2 2 2 2 2 2 2 
2 2 2 2 2 2 2 2 2 
2 2 2 2 2 2 2 2 2 
2 2 2 2 2 2 2 2 2 
2 2 2 2 2 2 2 2 2 
2 2 2 2 2 2 2 2 2 
2 2 2 2 2 2 2 2 2 
2 2 2 2 2 2 2 2 2 
2 2 2 2 2 2 2 2 2 
2 2 2 2 2 2 2 2 2 
2 2 2 2 2 2 2 2 2 
2 2 2 2 2 2 2 2 2 
2 2 2 2 2 2 2 2 2 
2 2 2 2 2 2 2 2 2 
2 2 2 2 2 2 2 2 2 
2 2 2 2 2 2 2 2 2 
2 2 2 2 2 2 2 2 2 
2 2 2 2 2 2 2 2 2 
2 2 2 2 2 2 2 2 2 
2 2 2 2 2 2 2 2 2 
2 2 2 2 2 2 2 2 2 
2 2 2 2 2 2 2 2 2 
2 2 2 2 2 2 2 2 2 
2 2 2 2 2 2 2 2 2 
2 2 2 2 2 2 2 2 2 
2 2 2 2 2 2 2 2 2 
2 2 2 2 2 2 2 2 2 
2 2 2 2 2 2 2 2 2 
2 2 2 2 2 2 2 2 2 
2 2 2 2 2 2 2 2 2 
2 2 2 2 2 2 2 2 2 
2 2 2 2 2 2 2 2 2 
2 2 2 2 2 2 2 2 2 
2 2 2 2 2 2 2 2 2 
2 2 2 2 2 2 2 2 2 
2 2 2 2 2 2 2 2 2 
2 2 2 2 2 2 2 2 2 
2 2 2 2 2 2 2 2 2 
2 2 2 2 2 2 2 2 2 
2 2 2 2 2 2 2 2 2 
2 2 2 2 2 2 2 2 2 
2 2 2 2 2 2 2 2 2 
2 2 2 2 2 2 2 2 2 
2 2 2 2 2 2 2 2 2 
2 2 2 2 2 2 2 2 2 
2 2 2 2 2 2 2 2 2 
2 2 2 2 2 2 2 2 2 
2 2 2 2 2 2 2 2 2 
2 2 2 2 2 2 2 2 2 
2 2 2 2 2 2 2 2 2 
2 2 2 2 2 2 2 2 2 
2 2 2 2 2 2 2 2 2 
2 2 2 2 2 2 2 2 2 
2 2 2 2 2 2 2 2 2 
2 2 2 2 2 2 2 2 2 
2 2 2 2 2 2 2 2 2 
2 2 2 2 2 2 2 2 2 
2 2 2 2 2 2 2 2 2 
2 2 2 2 2 2 2 2 2 
2 2 2 2 2 2 2 2 2 
2 2 2 2 2 2 2 2 2 
2 2 2 2 2 2 2 2 2 
2 2 2 2 2 2 2 2 2 
2 2 2 2 2 2 2 2 2 
2 2 2 2 2 2 2 2 2 
2 2 2 2 2 2 2 2 2 
2 2 2 2 2 2 2 2 2 
2 2 2 2 2 2 2 2 2 
2 2 2 2 2 2 2 2 2 
2 2 2 2 2 2 2 2 2 
2 2 2 2 2 2 2 2 2 
2 2 2 2 2 2 2 2 2 
2 2 2 2 2 2 2 2 2 
2 2 2 2 2 2 2 2 2 
2 2 2 2 2 2 2 2 2 
2 2 2 2 2 2 2 2 2 
2 2 2 2 2 2 2 2 2 
2 2 2 2 2 2 2 2 2 
2 2 2 2 2 2 2 2 2 
2 2 2 2 2 2 2 2 2 
2 2 2 2 2 2 2 2 2 
2 2 2 2 2 2 2 2 2 
2 2 2 2 2 2 2 2 2 
2 2 2 2 2 2 2 2 2 
2 2 2 2 2 2 2 2 2 
2 2 2 2 2 2 2 2 2 
2 2 2 2 2 2 2 2 2 
2 2 2 2 2 2 2 2 2 
2 2 2 2 2 2 2 2 2 
2 2 2 2 2 2 2 2 2 
2 2 2 2 2 2 2 2 2 
2 2 2 2 2 2 2 2 2 
2 2 2 2 2 2 2 2 2 
2 2 2 2 2 2 2 2 2 
2 2 2 2 2 2 2 2 2 
2 2 2 2 2 2 2 2 2 
2 2 2 2 2 2 2 2 2 
2 2 2 2 2 2 2 2 2 
2 2 2 2 2 2 2 2 2 
2 2 2 2 2 2 2 2 2 
2 2 2 2 2 2 2 2 2 
2 2 2 2 2 2 2 2 2 
2 2 2 2 2 2 2 2 2 
2 2 2 2 2 2 2 2 2 
2 2 2 2 2 2 2 2 2 
2 2 2 2 2 2 2 2 2 
2 2 2 2 2 2 2 2 2 
2 2 2 2 2 2 2 2 2 
2 2 2 2 2 2 2 2 2 
2 2 2 2 2 2 2 2 2 
2 2 2 2 2 2 2 2 2 
2 2 2 2 2 2 2 2 2 
2 2 2 2 2 2 2 2 2 
2 2 2 2 2 2 2 2 2 
2 2 2 2 2 2 2 2 2 
2 2 2 2 2 2 2 2 2 
2 2 2 2 2 2 2 2 2 
2 2 2 2 2 2 2 2 2 
2 2 2 2 2 2 2 2 2 
2 2 2 2 2 2 2 2 2 
2 2 2 2 2 2 2 2 2 
2 2 2 2 2 2 2 2 2 
2 2 2 2 2 2 2 2 2 
2 2 2 2 2 2 2 2 2 
2 2 2 2 2 2 2 2 2 
2 2 2 2 2 2 2 2 2 
2 2 2 2 2 2 2 2 2 
2 2 2 2 2 2 2 2 2 
2 2 2 2 2 2 2 2 2 
2 2 2 2 2 2 2 2 2 
2 2 2 2 2 2 2 2 2 
2 2 2 2 2 2 2 2 2 
2 2 2 2 2 2 2 2 2 
2 2 2 2 2 2 2 2 2 
2 2 2 2 2 2 2 2 2 
2 2 2 2 2 2 2 2 2 
2 2 2 2 2 2 2 2 2 
2 2 2 2 2 2 2 2 2 
2 2 2 2 2 2 2 2 2 
2 2 2 2 2 2 2 2 2 
2 2 2 2 2 2 2 2 2 
2 2 2 2 2 2 2 2 2 
2 2 2 2 2 2 2 2 2 
2 2 2 2 2 2 2 2 2 
2 2 2 2 2 2 2 2 2 
2 2 2 2 2 2 2 2 2 
2 2 2 2 2 2 2 2 2 
2 2 2 2 2 2 2 2 2 
2 2 2 2 2 2 2 2 2 
2 2 2 2 2 2 2 2 2 
2 2 2 2 2 2 2 2 2 
2 2 2 2 2 2 2 2 2 
2 2 2 2 2 2 2 2 2 
2 2 2 2 2 2 2 2 2 
2 2 2 2 2 2 2 2 2 
2 2 2 2 2 2 2 2 2 
2 2 2 2 2 2 2 2 2 
2 2 2 2 2 2 2 2 2 
2 2 2 2 2 2 2 2 2 
2 2 2 2 2 2 2 2 2 
2 2 2 2 2 2 2 2 2 
2 2 2 2 2 2 2 2 2 
2 2 2 2 2 2 2 2 2 
2 2 2 2 2 2 2 2 2 
2 2 2 2 2 2 2 2 2 
2 2 2 2 2 2 2 2 2 
2 2 2 2 2 2 2 2 2 
2 2 2 2 2 2 2 2 2 
2 2 2 2 2 2 2 2 2 
2 2 2 2 2 2 2 2 2 
2 2 2 2 2 2 2 2 2 
2 2 2 2 2 2 2 2 2 
2 2 2 2 2 2 2 2 2 
2 2 2 2 2 2 2 2 2 
2 2 2 2 2 2 2 2 2 
2 2 2 2 2 2 2 2 2 
2 2 2 2 2 2 2 2 2 
2 2 2 2 2 2 2 2 2 
2 2 2 2 2 2 2 2 2 
2 2 2 2 2 2 2 2 2 
2 2 2 2 2 2 2 2 2 
2 2 2 2 2 2 2 2 2 
2 2 2 2 2 2 2 2 2 
2 2 2 2 2 2 2 2 2 
2 2 2 2 2 2 2 2 2 
2 2 2 2 2 2 2 2 2 
2 2 2 2 2 2 2 2 2 
2 2 2 2 2 2 2 2 2 
2 2 2 2 2 2 2 2 2 
2 2 2 2 2 2 2 2 2 
2 2 2 2 2 2 2 2 2 
2 2 2 2 2 2 2 2 2 
2 2 2 2 2 2 2 2 2 
2 2 2 2 2 2 2 2 2 
2 2 2 2 2 2 2 2 2 
2 2 2 2 2 2 2 2 2 
2 2 2 2 2 2 2 2 2 
2 2 2 2 2 2 2 2 2 
2 2 2 2 2 2 2 2 2 
2 2 2 2 2 2 2 2 2 
2 2 2 2 2 2 2 2 2 
2 2 2 2 2 2 2 2 2 
2 2 2 2 2 2 2 2 2 
2 2 2 2 2 2 2 2 2 
2 2 2 2 2 2 2 2 2 
2 2 2 2 2 2 2 2 2 
2 2 2 2 2 2 2 2 2 
2 2 2 2 2 2 2 2 2 
2 2 2 2 2 2 2 2 2 
2 2 2 2 2 2 2 2 2 
2 2 2 2 2 2 2 2 2 
2 2 2 2 2 2 2 2 2 
2 2 2 2 2 2 2 2 2 
2 2 2 2 2 2 2 2 2 
2 2 2 2 2 2 2 2 2 
2 2 2 2 2 2 2 2 2 
2 2 2 2 2 2 2 2 2 
2 2 2 2 2 2 2 2 2 
2 2 2 2 2 2 2 2 2 
2 2 2 2 2 2 2 2 2 
2 2 2 2 2 2 2 2 2 
2 2 2 2 2 2 2 2 2 
2 2 2 2 2 2 2 2 2 
2 2 2 2 2 2 2 2 2 
2 2 2 2 2 2 2 2 2 
2 2 2 2 2 2 2 2 2 
2 2 2 2 2 2 2 2 2 
2 2 2 2 2 2 2 2 2 
2 2 2 2 2 2 2 2 2 
2 2 2 2 2 2 2 2 2 
2 2 2 2 2 2 2 2 2 
2 2 2 2 2 2 2 2 2 
2 2 2 2 2 2 2 2 2 
2 2 2 2 2 2 2 2 2 
2 2 2 2 2 2 2 2 2 
2 2 2 2 2 2 2 2 2 
2 2 2 2 2 2 2 2 2 
2 2 2 2 2 2 2 2 2 
2 2 2 2 2 2 2 2 2 
2 2 2 2 2 2 2 2 2 
2 2 2 2 2 2 2 2 2 
2 2 2 2 2 2 2 2 2 
2 2 2 2 2 2 2 2 2 
2 2 2 2 2 2 2 2 2 
2 2 2 2 2 2 2 2 2 
2 2 2 2 2 2 2 2 2 
2 2 2 2 2 2 2 2 2 
2 2 2 2 2 2 2 2 2 
2 2 2 2 2 2 2 2 2 
2 2 2 2 2 2 2 2 2 
2 2 2 2 2 2 2 2 2 
2 2 2 2 2 2 2 2 2 
2 2 2 2 2 2 2 2 2 
2 2 2 2 2 2 2 2 2 
2 2 2 2 2 2 2 2 2 
2 2 2 2 2 2 2 2 2 
2 2 2 2 2 2 2 2 2 
2 2 2 2 2 2 2 2 2 
2 2 2 2 2 2 2 2 2 
2 2 2 2 2 2 2 2 2 
2 2 2 2 2 2 2 2 2 
2 2 2 2 2 2 2 2 2 
2 2 2 2 2 2 2 2 2 
2 2 2 2 2 2 2 2 2 
2 2 2 2 2 2 2 2 2 
2 2 2 2 2 2 2 2 2 
2 2 2 2 2 2 2 2 2 
2 2 2 2 2 2 2 2 2 
2 2 2 2 2 2 2 2 2 
2 2 2 2 2 2 2 2 2 
2 2 2 2 2 2 2 2 2 
2 2 2 2 2 2 2 2 2 
2 2 2 2 2 2 2 2 2 
2 2 2 2 2 2 2 2 2 
2 2 2 2 2 2 2 2 2 
2 2 2 2 2 2 2 2 2 
2 2 2 2 2 2 2 2 2 
2 2 2 2 2 2 2 2 2 
2 2 2 2 2 2 2 2 2 
2 2 2 2 2 2 2 2 2 
2 2 2 2 2 2 2 2 2 
2 2 2 2 2 2 2 2 2 
2 2 2 2 2 2 2 2 2 
2 2 2 2 2 2 2 2 2 
2 2 2 2 2 2 2 2 2 
2 2 2 2 2 2 2 2 2 
2 2 2 
FIELD FieldData 1
Colors 3 3000 unsigned_char
153 0 153 153 0 153 153 0 153 
153 0 153 153 0 153 153 0 153 
153 0 153 153 0 153 153 0 153 
153 0 153 153 0 153 153 0 153 
153 0 153 153 0 153 153 0 153 
153 0 153 153 0 153 153 0 153 
153 0 153 153 0 153 153 0 153 
153 0 153 153 0 153 153 0 153 
153 0 153 153 0 153 153 0 153 
153 0 153 153 0 153 153 0 153 
153 0 153 153 0 153 153 0 153 
153 0 153 153 0 153 153 0 153 
153 0 153 153 0 153 153 0 153 
153 0 153 153 0 153 153 0 153 
153 0 153 153 0 153 153 0 153 
153 0 153 153 0 153 153 0 153 
153 0 153 153 0 153 153 0 153 
153 0 153 153 0 153 153 0 153 
153 0 153 153 0 153 153 0 153 
153 0 153 153 0 153 153 0 153 
153 0 153 153 0 153 153 0 153 
153 0 153 153 0 153 153 0 153 
153 0 153 153 0 153 153 0 153 
153 0 153 153 0 153 153 0 153 
153 0 153 153 0 153 153 0 153 
153 0 153 153 0 153 153 0 153 
153 0 153 153 0 153 153 0 153 
153 0 153 153 0 153 153 0 153 
153 0 153 153 0 153 153 0 153 
153 0 153 153 0 153 153 0 153 
153 0 153 153 0 153 153 0 153 
153 0 153 153 0 153 153 0 153 
153 0 153 153 0 153 153 0 153 
153 0 153 153 0 153 153 0 153 
153 0 153 153 0 153 153 0 153 
153 0 153 153 0 153 153 0 153 
153 0 153 153 0 153 153 0 153 
153 0 153 153 0 153 153 0 153 
153 0 153 153 0 153 153 0 153 
153 0 153 153 0 153 153 0 153 
153 0 153 153 0 153 153 0 153 
153 0 153 153 0 153 153 0 153 
153 0 153 153 0 153 153 0 153 
153 0 153 153 0 153 153 0 153 
153 0 153 153 0 153 153 0 153 
153 0 153 153 0 153 153 0 153 
153 0 153 153 0 153 153 0 153 
153 0 153 153 0 153 153 0 153 
153 0 153 153 0 153 153 0 153 
153 0 153 153 0 153 153 0 153 
153 0 153 153 0 153 153 0 153 
153 0 153 153 0 153 153 0 153 
153 0 153 153 0 153 153 0 153 
153 0 153 153 0 153 153 0 153 
153 0 153 153 0 153 153 0 153 
153 0 153 153 0 153 153 0 153 
153 0 153 153 0 153 153 0 153 
153 0 153 153 0 153 153 0 153 
153 0 153 153 0 153 153 0 153 
153 0 153 153 0 153 153 0 153 
153 0 153 153 0 153 153 0 153 
153 0 153 153 0 153 153 0 153 
153 0 153 153 0 153 153 0 153 
153 0 153 153 0 153 153 0 153 
153 0 153 153 0 153 153 0 153 
153 0 153 153 0 153 153 0 153 
153 0 153 153 0 153 153 0 153 
153 0 153 153 0 153 153 0 153 
153 0 153 153 0 153 153 0 153 
153 0 153 153 0 153 153 0 153 
153 0 153 153 0 153 153 0 153 
153 0 153 153 0 153 153 0 153 
153 0 153 153 0 153 153 0 153 
153 0 153 153 0 153 153 0 153 
153 0 153 153 0 153 153 0 153 
153 0 153 153 0 153 153 0 153 
153 0 153 153 0 153 153 0 153 
153 0 153 153 0 153 153 0 153 
153 0 153 153 0 153 153 0 153 
153 0 153 153 0 153 153 0 153 
153 0 153 153 0 153 153 0 153 
153 0 153 153 0 153 153 0 153 
153 0 153 153 0 153 153 0 153 
153 0 153 153 0 153 153 0 153 
153 0 153 153 0 153 153 0 153 
153 0 153 153 0 153 153 0 153 
153 0 153 153 0 153 153 0 153 
153 0 153 153 0 153 153 0 153 
153 0 153 153 0 153 153 0 153 
153 0 153 153 0 153 153 0 153 
153 0 153 153 0 153 153 0 153 
153 0 153 153 0 153 153 0 153 
153 0 153 153 0 153 153 0 153 
153 0 153 153 0 153 153 0 153 
153 0 153 153 0 153 153 0 153 
153 0 153 153 0 153 153 0 153 
153 0 153 153 0 153 153 0 153 
153 0 153 153 0 153 153 0 153 
153 0 153 153 0 153 153 0 153 
153 0 153 153 0 153 153 0 153 
153 0 153 153 0 153 153 0 153 
153 0 153 153 0 153 153 0 153 
153 0 153 153 0 153 153 0 153 
153 0 153 153 0 153 153 0 153 
153 0 153 153 0 153 153 0 153 
153 0 153 153 0 153 153 0 153 
153 0 153 153 0 153 153 0 153 
153 0 153 153 0 153 153 0 153 
153 0 153 153 0 153 153 0 153 
153 0 153 153 0 153 153 0 153 
153 0 153 153 0 153 153 0 153 
153 0 153 153 0 153 153 0 153 
153 0 153 153 0 153 153 0 153 
153 0 153 153 0 153 153 0 153 
153 0 153 153 0 153 153 0 153 
153 0 153 153 0 153 153 0 153 
153 0 153 153 0 153 153 0 153 
153 0 153 153 0 153 153 0 153 
153 0 153 153 0 153 153 0 153 
153 0 153 153 0 153 153 0 153 
153 0 153 153 0 153 153 0 153 
153 0 153 153 0 153 153 0 153 
153 0 153 153 0 153 153 0 153 
153 0 153 153 0 153 153 0 153 
153 0 153 153 0 153 153 0 153 
153 0 153 153 0 153 153 0 153 
153 0 153 153 0 153 153 0 153 
153 0 153 153 0 153 153 0 153 
153 0 153 153 0 153 153 0 153 
153 0 153 153 0 153 153 0 153 
153 0 153 153 0 153 153 0 153 
153 0 153 153 0 153 153 0 153 
153 0 153 153 0 153 153 0 153 
153 0 153 153 0 153 153 0 153 
153 0 153 153 0 153 153 0 153 
153 0 153 153 0 153 153 0 153 
153 0 153 153 0 153 153 0 153 
153 0 153 153 0 153 153 0 153 
153 0 153 153 0 153 153 0 153 
153 0 153 153 0 153 153 0 153 
153 0 153 153 0 153 153 0 153 
153 0 153 153 0 153 153 0 153 
153 0 153 153 0 153 153 0 153 
153 0 153 153 0 153 153 0 153 
153 0 153 153 0 153 153 0 153 
153 0 153 153 0 153 153 0 153 
153 0 153 153 0 153 153 0 153 
153 0 153 153 0 153 153 0 153 
153 0 153 153 0 153 153 0 153 
153 0 153 153 0 153 153 0 153 
153 0 153 153 0 153 153 0 153 
153 0 153 153 0 153 153 0 153 
153 0 153 153 0 153 153 0 153 
153 0 153 153 0 153 153 0 153 
153 0 153 153 0 153 153 0 153 
153 0 153 153 0 153 153 0 153 
153 0 153 153 0 153 153 0 153 
153 0 153 153 0 153 153 0 153 
153 0 153 153 0 153 153 0 153 
153 0 153 153 0 153 153 0 153 
153 0 153 153 0 153 153 0 153 
153 0 153 153 0 153 153 0 153 
153 0 153 153 0 153 153 0 153 
153 0 153 153 0 153 153 0 153 
153 0 153 153 0 153 153 0 153 
153 0 153 153 0 153 153 0 153 
153 0 153 153 0 153 153 0 153 
153 0 153 153 0 153 153 0 153 
153 0 153 153 0 153 153 0 153 
153 0 153 153 0 153 153 0 153 
153 0 153 153 0 153 153 0 153 
153 0 153 153 0 153 153 0 153 
153 0 153 153 0 153 153 0 153 
153 0 153 153 0 153 153 0 153 
153 0 153 153 0 153 153 0 153 
153 0 153 153 0 153 153 0 153 
153 0 153 153 0 153 153 0 153 
153 0 153 153 0 153 153 0 153 
153 0 153 153 0 153 153 0 153 
153 0 153 153 0 153 153 0 153 
153 0 153 153 0 153 153 0 153 
153 0 153 153 0 153 153 0 153 
153 0 153 153 0 153 153 0 153 
153 0 153 153 0 153 153 0 153 
153 0 153 153 0 153 153 0 153 
153 0 153 153 0 153 153 0 153 
153 0 153 153 0 153 153 0 153 
153 0 153 153 0 153 153 0 153 
153 0 153 153 0 153 153 0 153 
153 0 153 153 0 153 153 0 153 
153 0 153 153 0 153 153 0 153 
153 0 153 153 0 153 153 0 153 
153 0 153 153 0 153 153 0 153 
153 0 153 153 0 153 153 0 153 
153 0 153 153 0 153 153 0 153 
153 0 153 153 0 153 153 0 153 
153 0 153 153 0 153 153 0 153 
153 0 153 153 0 153 153 0 153 
153 0 153 153 0 153 153 0 153 
153 0 153 153 0 153 153 0 153 
153 0 153 153 0 153 153 0 153 
153 0 153 153 0 153 153 0 153 
153 0 153 153 0 153 153 0 153 
153 0 153 153 0 153 153 0 153 
153 0 153 153 0 153 153 0 153 
153 0 153 153 0 153 153 0 153 
153 0 153 153 0 153 153 0 153 
153 0 153 153 0 153 153 0 153 
153 0 153 153 0 153 153 0 153 
153 0 153 153 0 153 153 0 153 
153 0 153 153 0 153 153 0 153 
153 0 153 153 0 153 153 0 153 
153 0 153 153 0 153 153 0 153 
153 0 153 153 0 153 153 0 153 
153 0 153 153 0 153 153 0 153 
153 0 153 153 0 153 153 0 153 
153 0 153 153 0 153 153 0 153 
153 0 153 153 0 153 153 0 153 
153 0 153 153 0 153 153 0 153 
153 0 153 153 0 153 153 0 153 
153 0 153 153 0 153 153 0 153 
153 0 153 153 0 153 153 0 153 
153 0 153 153 0 153 153 0 153 
153 0 153 153 0 153 153 0 153 
153 0 153 153 0 153 153 0 153 
153 0 153 153 0 153 153 0 153 
153 0 153 153 0 153 153 0 153 
153 0 153 153 0 153 153 0 153 
153 0 153 153 0 153 153 0 153 
153 0 153 153 0 153 153 0 153 
153 0 153 153 0 153 153 0 153 
153 0 153 153 0 153 153 0 153 
153 0 153 153 0 153 153 0 153 
153 0 153 153 0 153 153 0 153 
153 0 153 153 0 153 153 0 153 
153 0 153 153 0 153 153 0 153 
153 0 153 153 0 153 153 0 153 
153 0 153 153 0 153 153 0 153 
153 0 153 153 0 153 153 0 153 
153 0 153 153 0 153 153 0 153 
153 0 153 153 0 153 153 0 153 
153 0 153 153 0 153 153 0 153 
153 0 153 153 0 153 153 0 153 
153 0 153 153 0 153 153 0 153 
153 0 153 153 0 153 153 0 153 
153 0 153 153 0 153 153 0 153 
153 0 153 153 0 153 153 0 153 
153 0 153 153 0 153 153 0 153 
153 0 153 153 0 153 153 0 153 
153 0 153 153 0 153 153 0 153 
153 0 153 153 0 153 153 0 153 
153 0 153 153 0 153 153 0 153 
153 0 153 153 0 153 153 0 153 
153 0 153 153 0 153 153 0 153 
153 0 153 153 0 153 153 0 153 
153 0 153 153 0 153 153 0 153 
153 0 153 153 0 153 153 0 153 
153 0 153 153 0 153 153 0 153 
153 0 153 153 0 153 153 0 153 
153 0 153 153 0 153 153 0 153 
153 0 153 153 0 153 153 0 153 
153 0 153 153 0 153 153 0 153 
153 0 153 153 0 153 153 0 153 
153 0 153 153 0 153 153 0 153 
153 0 153 153 0 153 153 0 153 
153 0 153 153 0 153 153 0 153 
153 0 153 153 0 153 153 0 153 
153 0 153 153 0 153 153 0 153 
153 0 153 153 0 153 153 0 153 
153 0 153 153 0 153 153 0 153 
153 0 153 153 0 153 153 0 153 
153 0 153 153 0 153 153 0 153 
153 0 153 153 0 153 153 0 153 
153 0 153 153 0 153 153 0 153 
153 0 153 153 0 153 153 0 153 
153 0 153 153 0 153 153 0 153 
153 0 153 153 0 153 153 0 153 
153 0 153 153 0 153 153 0 153 
153 0 153 153 0 153 153 0 153 
153 0 153 153 0 153 153 0 153 
153 0 153 153 0 153 153 0 153 
153 0 153 153 0 153 153 0 153 
153 0 153 153 0 153 153 0 153 
153 0 153 153 0 153 153 0 153 
153 0 153 153 0 153 153 0 153 
153 0 153 153 0 153 153 0 153 
153 0 153 153 0 153 153 0 153 
153 0 153 153 0 153 153 0 153 
153 0 153 153 0 153 153 0 153 
153 0 153 153 0 153 153 0 153 
153 0 153 153 0 153 153 0 153 
153 0 153 153 0 153 153 0 153 
153 0 153 153 0 153 153 0 153 
153 0 153 153 0 153 153 0 153 
153 0 153 153 0 153 153 0 153 
153 0 153 153 0 153 153 0 153 
153 0 153 153 0 153 153 0 153 
153 0 153 153 0 153 153 0 153 
153 0 153 153 0 153 153 0 153 
153 0 153 153 0 153 153 0 153 
153 0 153 153 0 153 153 0 153 
153 0 153 153 0 153 153 0 153 
153 0 153 153 0 153 153 0 153 
153 0 153 153 0 153 153 0 153 
153 0 153 153 0 153 153 0 153 
153 0 153 153 0 153 153 0 153 
153 0 153 153 0 153 153 0 153 
153 0 153 153 0 153 153 0 153 
153 0 153 153 0 153 153 0 153 
153 0 153 153 0 153 153 0 153 
153 0 153 153 0 153 153 0 153 
153 0 153 153 0 153 153 0 153 
153 0 153 153 0 153 153 0 153 
153 0 153 153 0 153 153 0 153 
153 0 153 153 0 153 153 0 153 
153 0 153 153 0 153 153 0 153 
153 0 153 153 0 153 153 0 153 
153 0 153 153 0 153 153 0 153 
153 0 153 153 0 153 153 0 153 
153 0 153 153 0 153 153 0 153 
153 0 153 153 0 153 153 0 153 
153 0 153 153 0 153 153 0 153 
153 0 153 153 0 153 153 0 153 
153 0 153 153 0 153 153 0 153 
153 0 153 153 0 153 153 0 153 
153 0 153 153 0 153 153 0 153 
153 0 153 153 0 153 153 0 153 
153 0 153 153 0 153 153 0 153 
153 0 153 153 0 153 153 0 153 
153 0 153 153 0 153 153 0 153 
153 0 153 153 0 153 153 0 153 
153 0 153 153 0 153 153 0 153 
153 0 153 153 0 153 153 0 153 
153 0 153 153 0 153 153 0 153 
153 0 153 153 0 153 153 0 153 
153 0 153 153 0 153 153 0 153 
153 0 153 153 0 153 153 0 153 
153 0 153 153 0 153 153 0 153 
153 0 153 153 0 153 153 0 153 
153 0 153 153 0 153 153 0 153 
153 0 153 153 0 153 153 0 153 
153 0 153 153 0 153 153 0 153 
153 0 153 153 0 153 153 0 153 
153 0 153 153 0 153 153 0 153 
153 0 153 153 0 153 153 0 153 
153 0 153 153 0 153 153 0 153 
153 0 153 153 0 153 153 0 153 
153 0 153 153 0 153 153 0 153 
153 0 153 153 0 153 153 0 153 
153 0 153 153 0 153 153 0 153 
153 0 153 153 0 153 153 0 153 
153 0 153 153 0 153 153 0 153 
153 0 153 153 0 153 153 0 153 
153 0 153 153 0 153 153 0 153 
153 0 153 153 0 153 153 0 153 
153 0 153 153 0 153 153 0 153 
153 0 153 153 0 153 153 0 153 
153 0 153 153 0 153 153 0 153 
153 0 153 153 0 153 153 0 153 
153 0 153 153 0 153 153 0 153 
153 0 153 153 0 153 153 0 153 
153 0 153 153 0 153 153 0 153 
153 0 153 153 0 153 153 0 153 
153 0 153 153 0 153 153 0 153 
153 0 153 153 0 153 153 0 153 
153 0 153 153 0 153 153 0 153 
153 0 153 153 0 153 153 0 153 
153 0 153 153 0 153 153 0 153 
153 0 153 153 0 153 153 0 153 
153 0 153 153 0 153 153 0 153 
153 0 153 153 0 153 153 0 153 
153 0 153 153 0 153 153 0 153 
153 0 153 153 0 153 153 0 153 
153 0 153 153 0 153 153 0 153 
153 0 153 153 0 153 153 0 153 
153 0 153 153 0 153 153 0 153 
153 0 153 153 0 153 153 0 153 
153 0 153 153 0 153 153 0 153 
153 0 153 153 0 153 153 0 153 
153 0 153 153 0 153 153 0 153 
153 0 153 153 0 153 153 0 153 
153 0 153 153 0 153 153 0 153 
153 0 153 153 0 153 153 0 153 
153 0 153 153 0 153 153 0 153 
153 0 153 153 0 153 153 0 153 
153 0 153 153 0 153 153 0 153 
153 0 153 153 0 153 153 0 153 
153 0 153 153 0 153 153 0 153 
153 0 153 153 0 153 153 0 153 
153 0 153 153 0 153 153 0 153 
153 0 153 153 0 153 153 0 153 
153 0 153 153 0 153 153 0 153 
153 0 153 153 0 153 153 0 153 
153 0 153 153 0 153 153 0 153 
153 0 153 153 0 153 153 0 153 
153 0 153 153 0 153 153 0 153 
153 0 153 153 0 153 153 0 153 
153 0 153 153 0 153 153 0 153 
153 0 153 153 0 153 153 0 153 
153 0 153 153 0 153 153 0 153 
153 0 153 153 0 153 153 0 153 
153 0 153 153 0 153 153 0 153 
153 0 153 153 0 153 153 0 153 
153 0 153 153 0 153 153 0 153 
153 0 153 153 0 153 153 0 153 
153 0 153 153 0 153 153 0 153 
153 0 153 153 0 153 153 0 153 
153 0 153 153 0 153 153 0 153 
153 0 153 153 0 153 153 0 153 
153 0 153 153 0 153 153 0 153 
153 0 153 153 0 153 153 0 153 
153 0 153 153 0 153 153 0 153 
153 0 153 153 0 153 153 0 153 
153 0 153 153 0 153 153 0 153 
153 0 153 153 0 153 153 0 153 
153 0 153 153 0 153 153 0 153 
153 0 153 153 0 153 153 0 153 
153 0 153 153 0 153 153 0 153 
153 0 153 153 0 153 153 0 153 
153 0 153 153 0 153 153 0 153 
153 0 153 153 0 153 153 0 153 
153 0 153 153 0 153 153 0 153 
153 0 153 153 0 153 153 0 153 
153 0 153 153 0 153 153 0 153 
153 0 153 153 0 153 153 0 153 
153 0 153 153 0 153 153 0 153 
153 0 153 153 0 153 153 0 153 
153 0 153 153 0 153 153 0 153 
153 0 153 153 0 153 153 0 153 
153 0 153 153 0 153 153 0 153 
153 0 153 153 0 153 153 0 153 
153 0 153 153 0 153 153 0 153 
153 0 153 153 0 153 153 0 153 
153 0 153 153 0 153 153 0 153 
153 0 153 153 0 153 153 0 153 
153 0 153 153 0 153 153 0 153 
153 0 153 153 0 153 153 0 153 