# vtk DataFile Version 1.0
Unstructured Grid Example
ASCII

DATASET UNSTRUCTURED_GRID
POINTS 5200 float
167 208 0
164 213 0
166.25 209.25 0
165.5 210.5 0
164.75 211.75 0
164 382 0
167 384 0
164.75 382.5 0
165.5 383 0
166.25 383.5 0
169 374 0
164 377 0
167.75 374.75 0
166.5 375.5 0
165.25 376.25 0
255 163 0
249 162 0
253.5 162.75 0
252 162.5 0
250.5 162.25 0
464 78 0
461 73 0
463.25 76.75 0
462.5 75.5 0
461.75 74.25 0
149 315 0
154 317 0
150.25 315.5 0
151.5 316 0
152.75 316.5 0
171 370 0
170.5 371 0
170 372 0
169.5 373 0
486 104 0
482 100 0
485 103 0
484 102 0
483 101 0
142 313 0
144 316 0
142.5 313.75 0
143 314.5 0
143.5 315.25 0
202 316.5 0
204 319 0
202.5 317.125 0
203 317.75 0
203.5 318.375 0
245 242 0
249 236 0
246 240.5 0
247 239 0
248 237.5 0
444 342 0
447 339 0
444.75 341.25 0
445.5 340.5 0
446.25 339.75 0
183 369 0
187 367 0
184 368.5 0
185 368 0
186 367.5 0
279 427 0
286 427 0
280.75 427 0
282.5 427 0
284.25 427 0
223 380.5 0
226 382 0
223.75 380.875 0
224.5 381.25 0
225.25 381.625 0
546 233 0
538.065 232.022 0
544.016 232.755 0
542.033 232.511 0
540.049 232.267 0
441 468 0
446 466 0
442.25 467.5 0
443.5 467 0
444.75 466.5 0
524 347 0
528 344 0
525 346.25 0
526 345.5 0
527 344.75 0
374 409 0
374 404 0
374 407.75 0
374 406.5 0
374 405.25 0
230.5 386.5 0
235 391 0
231.625 387.625 0
232.75 388.75 0
233.875 389.875 0
102 233 0
101 227 0
101.75 231.5 0
101.5 230 0
101.25 228.5 0
438 472 0
438.75 471 0
439.5 470 0
440.25 469 0
437 468 0
437.25 469 0
437.5 470 0
437.75 471 0
531 341 0
534 339 0
531.75 340.5 0
532.5 340 0
533.25 339.5 0
541 334 0
542 331 0
541.25 333.25 0
541.5 332.5 0
541.75 331.75 0
168 381 0
167.25 383.25 0
167.5 382.5 0
167.75 381.75 0
457 458.5 0
458 454 0
457.25 457.375 0
457.5 456.25 0
457.75 455.125 0
506 295 0
507 289 0
506.25 293.5 0
506.5 292 0
506.75 290.5 0
511 289 0
508 289 0
509 289 0
510 289 0
333 436 0
336 434 0
333.75 435.5 0
334.5 435 0
335.25 434.5 0
451 339 0
454 333 0
451.75 337.5 0
452.5 336 0
453.25 334.5 0
449 336 0
449.5 336.75 0
450 337.5 0
450.5 338.25 0
269 164 0
273 167 0
270 164.75 0
271 165.5 0
272 166.25 0
83 317 0
82 313 0
82.75 316 0
82.5 315 0
82.25 314 0
96 230 0
99 234 0
96.75 231 0
97.5 232 0
98.25 233 0
168 203 0
167.75 204.25 0
167.5 205.5 0
167.25 206.75 0
340 432.5 0
344 431 0
341 432.125 0
342 431.75 0
343 431.375 0
560 301 0
552 301 0
558 301 0
556 301 0
554 301 0
553 306.5 0
552.25 302.375 0
552.5 303.75 0
552.75 305.125 0
251 244 0
249 247 0
250.5 244.75 0
250 245.5 0
249.5 246.25 0
296 224 0
293 226 0
295.25 224.5 0
294.5 225 0
293.75 225.5 0
296 228 0
293.75 226.5 0
294.5 227 0
295.25 227.5 0
327 172 0
323 171 0
326 171.75 0
325 171.5 0
324 171.25 0
472 408.5 0
471 402 0
471.75 406.875 0
471.5 405.25 0
471.25 403.625 0
433 466 0
434 466.5 0
435 467 0
436 467.5 0
473 431 0
472 423 0
472.75 429 0
472.5 427 0
472.25 425 0
449 198 0
444 201 0
447.75 198.75 0
446.5 199.5 0
445.25 200.25 0
377 76 0
383 82 0
378.5 77.5 0
380 79 0
381.5 80.5 0
305 161 0
301 159 0
304 160.5 0
303 160 0
302 159.5 0
306.474 101.797 0
308 97 0
306.856 100.598 0
307.237 99.3985 0
307.618 98.1993 0
395 94 0
398 98 0
395.75 95 0
396.5 96 0
397.25 97 0
401 102 0
398.75 99 0
399.5 100 0
400.25 101 0
549 327 0
543.75 330 0
545.5 329 0
547.25 328 0
434 108 0
428 107 0
432.5 107.75 0
431 107.5 0
429.5 107.25 0
467 398 0
470 401 0
469 400 0
468 399 0
439 343 0
440.25 342.75 0
441.5 342.5 0
442.75 342.25 0
531 208 0
535 208.125 0
532 208.031 0
533 208.063 0
534 208.094 0
534 212 0
533.25 211 0
532.5 210 0
531.75 209 0
437 347 0
437.5 346 0
438 345 0
438.5 344 0
259 79 0
256 83 0
258.25 80 0
257.5 81 0
256.75 82 0
212 113 0
211 117 0
211.75 114 0
211.5 115 0
211.25 116 0
139 312 0
139.75 312.25 0
140.5 312.5 0
141.25 312.75 0
173 200 0
172 205 0
172.75 201.25 0
172.5 202.5 0
172.25 203.75 0
242 212 0
244 209 0
242.5 211.25 0
243 210.5 0
243.5 209.75 0
210 162 0
214 164 0
211 162.5 0
212 163 0
213 163.5 0
220 379 0
220.75 379.375 0
221.5 379.75 0
222.25 380.125 0
228.25 384.25 0
226.563 382.563 0
227.125 383.125 0
227.688 383.688 0
558 313 0
561 307 0
558.75 311.5 0
559.5 310 0
560.25 308.5 0
551 320 0
556 319 0
552.25 319.75 0
553.5 319.5 0
554.75 319.25 0
456 336 0
454.5 333.75 0
455 334.5 0
455.5 335.25 0
459 332 0
456.75 335 0
457.5 334 0
458.25 333 0
459 376 0
461 373.5 0
459.5 375.375 0
460 374.75 0
460.5 374.125 0
434 349 0
434.75 348.5 0
435.5 348 0
436.25 347.5 0
531 215 0
531.75 214.25 0
532.5 213.5 0
533.25 212.75 0
532.5 205 0
534 202 0
532.875 204.25 0
533.25 203.5 0
533.625 202.75 0
254 241 0
253.25 241.75 0
252.5 242.5 0
251.75 243.25 0
439 175 0
438 172 0
438.75 174.25 0
438.5 173.5 0
438.25 172.75 0
109 229 0
107.25 230 0
105.5 231 0
103.75 232 0
104 229 0
105.25 229 0
106.5 229 0
107.75 229 0
171 204.5 0
170 204 0
169 203.5 0
274.06 262.98 0
273 259 0
273.795 261.985 0
273.53 260.99 0
273.265 259.995 0
126 236 0
121 234 0
124.75 235.5 0
123.5 235 0
122.25 234.5 0
106 259 0
98 259 0
104 259 0
102 259 0
100 259 0
153 231 0
148 234 0
151.75 231.75 0
150.5 232.5 0
149.25 233.25 0
135 308 0
138 309 0
135.75 308.25 0
136.5 308.5 0
137.25 308.75 0
87 281 0
85 286 0
86.5 282.25 0
86 283.5 0
85.5 284.75 0
69 277 0
72 282 0
69.75 278.25 0
70.5 279.5 0
71.25 280.75 0
69 283 0
71.25 282.25 0
70.5 282.5 0
69.75 282.75 0
289 118 0
289 114 0
289 117 0
289 116 0
289 115 0
293 112 0
294 108 0
293.25 111 0
293.5 110 0
293.75 109 0
208 364 0
208 367.5 0
208 364.875 0
208 365.75 0
208 366.625 0
212 369 0
209 367.875 0
210 368.25 0
211 368.625 0
174 366 0
173.25 367 0
172.5 368 0
171.75 369 0
178 352 0
177 358 0
177.75 353.5 0
177.5 355 0
177.25 356.5 0
175 376 0
181 377 0
176.5 376.25 0
178 376.5 0
179.5 376.75 0
177 382 0
176.5 380.5 0
176 379 0
175.5 377.5 0
212.5 110 0
212.375 110.75 0
212.25 111.5 0
212.125 112.25 0
301 81 0
296 82 0
299.75 81.25 0
298.5 81.5 0
297.25 81.75 0
262 101 0
266 102 0
263 101.25 0
264 101.5 0
265 101.75 0
274 78 0
278.6 80 0
275.15 78.5 0
276.3 79 0
277.45 79.5 0
277 75 0
278.2 78.75 0
277.8 77.5 0
277.4 76.25 0
232 112 0
235 107 0
232.75 110.75 0
233.5 109.5 0
234.25 108.25 0
249 97 0
255 101 0
250.5 98 0
252 99 0
253.5 100 0
478 369 0
480 366 0
478.5 368.25 0
479 367.5 0
479.5 366.75 0
475 368 0
475.75 368.25 0
476.5 368.5 0
477.25 368.75 0
466 329 0
469 326 0
466.75 328.25 0
467.5 327.5 0
468.25 326.75 0
464 391.5 0
462 389 0
463.5 390.875 0
463 390.25 0
462.5 389.625 0
486 367 0
481.5 366.25 0
483 366.5 0
484.5 366.75 0
295.5 287 0
290 287.5 0
294.125 287.125 0
292.75 287.25 0
291.375 287.375 0
228.813 384.813 0
229.375 385.375 0
229.938 385.938 0
231 116 0
231.25 115 0
231.5 114 0
231.75 113 0
242 100 0
246 98 0
243 99.5 0
244 99 0
245 98.5 0
213 107 0
212.875 107.75 0
212.75 108.5 0
212.625 109.25 0
241 76 0
241 80 0
241 77 0
241 78 0
241 79 0
236 78 0
239.75 79.5 0
238.5 79 0
237.25 78.5 0
329.5 101.5 0
334 101 0
330.625 101.375 0
331.75 101.25 0
332.875 101.125 0
500 121 0
496 119 0
499 120.5 0
498 120 0
497 119.5 0
499 118 0
496.75 118.75 0
497.5 118.5 0
498.25 118.25 0
547 252 0
552 254 0
548.25 252.5 0
549.5 253 0
550.75 253.5 0
533 232 0
534 229 0
533.25 231.25 0
533.5 230.5 0
533.75 229.75 0
485 353 0
482 351 0
484.25 352.5 0
483.5 352 0
482.75 351.5 0
533 336 0
533.75 338.25 0
533.5 337.5 0
533.25 336.75 0
528.75 343.25 0
529.5 342.5 0
530.25 341.75 0
412 107 0
413 113 0
412.25 108.5 0
412.5 110 0
412.75 111.5 0
404 112 0
406 110.75 0
408 109.5 0
410 108.25 0
457 94 0
458 99 0
457.25 95.25 0
457.5 96.5 0
457.75 97.75 0
340 98 0
346 97 0
341.5 97.75 0
343 97.5 0
344.5 97.25 0
337 179 0
335 176 0
336.5 178.25 0
336 177.5 0
335.5 176.75 0
467 80 0
466.25 79.5 0
465.5 79 0
464.75 78.5 0
538 333 0
538.75 333.25 0
539.5 333.5 0
540.25 333.75 0
552.9 316.1 0
559 317 0
554.425 316.325 0
555.95 316.55 0
557.475 316.775 0
555.225 318.275 0
554.45 317.55 0
553.675 316.825 0
558.75 316 0
558.5 315 0
558.25 314 0
461 104 0
464 107 0
461.75 104.75 0
462.5 105.5 0
463.25 106.25 0
424 58 0
427 61 0
424.75 58.75 0
425.5 59.5 0
426.25 60.25 0
431 105 0
426 103 0
429.75 104.5 0
428.5 104 0
427.25 103.5 0
428.75 106.5 0
429.5 106 0
430.25 105.5 0
458.75 100.25 0
459.5 101.5 0
460.25 102.75 0
367 234 0
367 229 0
367 232.75 0
367 231.5 0
367 230.25 0
361 174 0
351 174 0
358.5 174 0
356 174 0
353.5 174 0
556.815 292.163 0
553 294 0
555.861 292.622 0
554.908 293.082 0
553.954 293.541 0
554.75 295.75 0
556.5 297.5 0
558.25 299.25 0
516 277.5 0
521.023 275.789 0
517.256 277.072 0
518.512 276.644 0
519.767 276.217 0
516 274 0
519.767 275.342 0
518.512 274.894 0
517.256 274.447 0
531 224 0
533.25 227.75 0
532.5 226.5 0
531.75 225.25 0
534 223 0
531.75 223.75 0
532.5 223.5 0
533.25 223.25 0
537 337 0
534 336.25 0
535 336.5 0
536 336.75 0
537.25 336 0
537.5 335 0
537.75 334 0
524 333 0
523 336 0
523.75 333.75 0
523.5 334.5 0
523.25 335.25 0
534 324 0
534 329 0
534 325.25 0
534 326.5 0
534 327.75 0
530 329 0
533 329 0
532 329 0
531 329 0
529 334 0
527.75 333.75 0
526.5 333.5 0
525.25 333.25 0
337 433.625 0
338 433.25 0
339 432.875 0
466 372 0
462.25 373.125 0
463.5 372.75 0
464.75 372.375 0
438 413 0
440 417 0
438.5 414 0
439 415 0
439.5 416 0
466 394 0
465.5 393.375 0
465 392.75 0
464.5 392.125 0
529.75 330.25 0
529.5 331.5 0
529.25 332.75 0
419 95 0
412 90 0
417.25 93.75 0
415.5 92.5 0
413.75 91.25 0
408 47 0
411 51 0
408.75 48 0
409.5 49 0
410.25 50 0
413 56 0
419 58 0
414.5 56.5 0
416 57 0
417.5 57.5 0
362 64 0
363 69 0
362.25 65.25 0
362.5 66.5 0
362.75 67.75 0
145.25 315.75 0
146.5 315.5 0
147.75 315.25 0
478 98 0
481 99.5 0
480 99 0
479 98.5 0
172 382 0
173 379 0
172.25 381.25 0
172.5 380.5 0
172.75 379.75 0
169 381.25 0
170 381.5 0
171 381.75 0
164 378.25 0
164 379.5 0
164 380.75 0
276 421 0
276.75 422.5 0
277.5 424 0
278.25 425.5 0
298 354 0
292 352 0
296.5 353.5 0
295 353 0
293.5 352.5 0
525 168 0
519 165 0
523.5 167.25 0
522 166.5 0
520.5 165.75 0
521.5 162.5 0
519.625 164.375 0
520.25 163.75 0
520.875 163.125 0
548 308 0
551.75 306.875 0
550.5 307.25 0
549.25 307.625 0
550 313 0
548.5 309.25 0
549 310.5 0
549.5 311.75 0
532 235 0
532.25 234.25 0
[...]
POINT_DATA 5200
SCALARS scalars float 1
LOOKUP_TABLE default
0 0 0 0 0 0 0 0 0 0 0 0 0 0 0 0 0 0 0 0 0 0 0 0 0 0 0 0 0 0 0 0 0 0 0 0 0 0 0 0 0 0 0 0 0 0 0 0 0 0 0 0 0 0 0 0 0 0 0 0 0 0 0 0 0 0 0 0 0 0 0 0 0 0 0 0 0 0 0 0 0 0 0 0 0 0 0 0 0 0 0 0 0 0 0 0 0 0 0 0 0 0 0 0 0 0 0 0 0 0 0 0 0 0 0 0 0 0 0 0 0 0 0 0 0 0 0 0 0 0 0 0 0 0 0 0 0 0 0 0 0 0 0 0 0 0 0 0 0 0 0 0 0 0 0 0 0 0 0 0 0 0 0 0 0 0 0 0 0 0 0 0 0 0 0 0 0 0 0 0 0 0 0 0 0 0 0 0 0 0 0 0 0 0 0 0 0 0 0 0 0 0 0 0 0 0 0 0 0 0 0 0 0 0 0 0 0 0 0 0 0 0 0 0 0 0 0 0 0 0 0 0 0 0 0 0 0 0 1.42109e-014 0 0 0 0 0 0 0 0 0 0 0 0 0 0 0 0 0 0 0 0 0 0 0 0 0 0 0 0 0 0 0 0 0 0 0 0 0 0 0 0 0 0 0 0 0 0 0 0 0 0 0 0 0 0 0 0 0 0 0 0 0 0 0 0 0 0 0 0 0 0 0 0 0 0 0 0 0 0 0 0 0 0 0 0 0 0 0 0 0 0 0 0 0 0 0 0 0 0 0 0 0 0 0 0 0 0 0 0 0 0 0 0 0 0 0 0 0 0 0 0 0 0 0 0 0 0 0 0 0 0 0 0 0 1.764 0 1.911 1.274 0.637 0 0 0 0 0 0 0 0 0 0 0 0 0 0 0 0 0 0 0 0 0 0 0 0 0 0 0 0 0 0 0 0 0 0 0 0 0 0 0 0 0 0 0 0 0 0 0 0 0 0 0 0 0 0 0 0 0 0 0 0 0 0 0 0 0 0 0 0 0 0 0 0 0 0 0 0 0 0 0 0 0 0 0 0 0 0 0 1.42109e-014 0 1.42109e-014 0 1.42109e-014 0 1.42109e-014 0 0 0 0 0 0 0 0 0 0 0 0 0 0 0 0 0 0 0 0 0 0 0 0 0 0 0 0 0 0 0 0 0 0 0 0 0 0 0 0 0 0 0 0 0 0 0 0 0 0 0 0 0 0 0 0 0 0 0 0 0 0 0 0 0 0 0 0 0 0 0 0 0 0 0 0 0 0 0 0 0 0 0 0 0 0 0 0 0 0 0 0 0 0 0 0 0 0 0 0 0 0 0 0 0 0 0 0 0 0 0 0 0 0 0 0 0 0 0 0 0 0 0 0 0 0 0 0 0 0 0 0 0 5.68434e-014 0 5.68434e-014 5.68434e-014 5.68434e-014 5.68434e-014 0 0 0 0 0 0 0 0 0 0 0 0 0 0 0 0 0 0 0 0 0 0 0 0 0 0 0 0 0 0 0 0 0 0 1.16599 0 0.874493 0.582996 0.291498 0 0 0 0 0 0 0 0 0 0 0 0 0 0 0 0 0 0 0 0 0 0 0 0 0 0 0 0 0 0 0 0 0 0 0 0 0 0 0 0 0 0 0 0 0 0 0 0 0 0 0 0 0 0 0 0 0 0 0 0 0 0 0 0 0 0 0 0 0 0 0 0 0 0 0 0 0 0 0 0 0 0 0 0 0 0 0 0 0 0 0 0 0 0 0 0 0 0 0 0 0 0 0 0 0 0 0 0 0 0 0 0 0 0 0 0 0 0 0 0 0 0 0 0 0 0 0 0 0 0 0 0 0 0 0 0 0 0 0 0 0 0 0 0 0 0 0 0 0 0 0 0 0 0 0 0 0 0 0 0 0 0 0 0 0 0 0 0 0 0 0 0 0 0 0 0 0 0 0 0 0 0 0 0 0 0 0 0 0 0 0 0 0 0 0 0 0 0 0 0 0 0 0 0 0 0 0 0 0 0 0 0 0 0 0 0 0 0 0 0 0 0 0 0 0 0 0 0 0 0 0 0 0 0 0 0 0 0 0 0 0 0 0 0 0 0 0 0 0.735 0.18375 0.3675 0.55125 0 0 0 0 0 0 0 0 0 0 0 0 0 0 0 0 0 0 0 0 0 0 0 0 0 0 0 0 0 0 0 0 0 0 0 0 0 0 0 0 0 0 0 0 0 0 0 0 0 0 0 0 0.98 0.245 0.49 0.735 0 0 0 0 0 0 0 0 0 0 0 0 0 0 0 0 0 0 0 0 0 0 0 0 0 0 0 0 0 0 0 0 0 0 0 0 0 0 0 0 0 0 0 0 0 0 0 0 0 0 0 0 0 0 0 0 0 0 0 0 0 0 0 0 0 0 0 0 0 0 0 0 0 0 0 0 0 0 0 0 0 0 0 0 0 0 0 0 0 0 0 0 0 0 0 0 0 0 0 0 0 0 0 0 0 0 0 0 0 0 0 0 0 0 0 0 0 0 0 0 0 0 0 0 0 0 0 0 0 0 0 0 0 0 0 0 0 0 0 0 0 2.84217e-014 0 2.84217e-014 0 0 0 0 0 0 0 0 0 0 0 0 0 0 0 0 0 0 0 0 0 0 0 0 0 0 0 0 0 0 0 0 0 0 0 0 0 0 0 0 0 0 0 0 0 0 0 0 0 0 0 0 0 0 0 0 0 0 0 0 0 0 0 0 0 0 0 0 0 5.68434e-014 0 0 0 0 0 0 0 0 0 0 0 0 0 0 0 1.52452 0 1.51032 1.00688 0.503439 0 0 0 0 0 0 0 0 0 0 0 0 0 0 0 0 0 0 0 0 0 0 0 0 0 0 0 0 0 0 0 0 0 0 0 0 0 0 0 0 0 0 0 0 0 0 0 0 0 0 0 0 0 0 0 0 0 0 0 0 0 0 0 0 0 0 0 0 0 0 0 0 0 0 0 0 0 0 0 0 0 0 0 0 0 0 0 0 0 0 0 0 0 0 0 0 0 0 0 0 0 0 0 0 0 0 0 0 0 0 0 0 0 0 0 0 0 0 0 0 0 0 0 0 0 0 0 0 0 0 0 0 0 0 0 0 0 0 0 0 0 0 0 0 0 0 0 0 0 0 0 0 0 0 0 0 0 0 0 0 0 0 0 0 0 0 0 0 0 0 0 0 0 0 0 0 0 0 0 0 0 0 0 0 0 0 0 0 0 0 0 0 0 0 0 0 0 0 0 0 0 0 0 0 0 0 0 0 0 0 0 0 0 0 0 0 0 0 0 0 0 0 0 0 0 0 0 0 0 0 0 0 0 0 0 0 0 0 0 0 0 1.42109e-014 0 1.42109e-014 0 0 0 0 0 0 0 0 0 0 0 0 0 0 0 0 0 0 0 0 0 0 0 0 0 0 0 0 0 0 0 0 0 0 0 0 0 0 0 0 0 0 0 0 0 0 0 0 0 0 0 0 0 0 0 0 0 0 0 0 0 0 0 0 0 0 0 0 0 0 0 0 0 0 0 0 0 0 0 0 0 0 0 0 0 0 0 0 0 0 0 0 0 0 0 0 0 0 0 0 2.84217e-014 0 0 0 0 0 0 0 0 0 0 0 0 0 0 0 0 0 0 0 0 0 0 0 0 0 0 0 0 0 0 0 0 0 0 0 0 0 0 0 0 0 0 0 0 0 0 0 0 0 0 0 0 0 0 0 0 0 0 0 0 0 0 0 0 0 0 0 0 0 0 0 0 0 0 0 0 0 0 0 0 0 0 0 0 0 0 0 0 0 0 0 0 0 0 0 0 0 0 0 0 0 0 0 0 0 0 0 0 0 0 0 0 0 0 0 0 0 0 0 0 0 0 0 0 0 0 0 0 0 0 0 0 0 0 0 0 0 0 0 0 0 0 0 0 0 0 0 0 0 0 0 0 0 0 0 0 0 0 0 0 0 0 0 0 0 0 0 0 0 0 1.11521 0.278803 0.557607 0.83641 0 0.900904 0.600603 0.300301 0 0 0 0 0 0 0 0 0 0 0 0 0 0 0 0 0 0 0 0 0 0 0 0 0 0 0 0 0 0 0 0 0 0 0 0 0 0 0 0 0 0.766971 0.207974 0.415949 0.623923 0 0 0 0 0 0 0 0 0 0 0 0 0 0 0 0 0 0 0 0 0 0 0 0 0 0 0 0 0 0 0 0 0 0 0 0 0 0 0 0 0 0 0 0 0 0 0 0 0 0 0 0 0 0 0 0 0 0 0 0 0 0 0 0 0 0 0 0 0 0 0 0 0 0 0 0 0 0 0 0 0 0 0 0 0 0 0 0 0 0 0 0 0 0 0 0 0 0 0 0 0 0 0 0 0 0 0 2.21071 0 1.72787 1.15191 0.575957 0 0 0 0 0 0 0 0 0 0 0 5.68434e-014 0 0 5.68434e-014 0 0 0 0 0 0 0 0 0 0 0 0 0 0 0 0 0 0 0 0 0 0 1.42109e-014 0 0 0 0 0 0 0 0 0 0 0 0 0 0 0 0 0 0 0 0 0 0 0 0 0 0 0 0 0 0 0 0 0 0 0 0 0 0 0 0 0 0 0 0 0 0 0 0 0 0 0 0 0 0 0 0 0 0 0 0 0 0 0 0 0 0 0 0 0 0 0 0 0 0 0 0 0 0 0 0 0 0 0 0 0 0 0 0 0 0 0 0 0 0 0 0 0 0 0 0 0 0 0 0 0 0 0 0 0 0 0 0 0 0 0 0 0 0 0 0 0 0 0 0 0 0 0 0 0 0 0 0 0 0 0 0 0 0 0 0 0 0 0 0 0 0 0 0 0 0 0 0 0 0 0 0 0 0 0 0 0 0 0 0 0 0 0 0 0 0 0 0 0 0 0 0 0 0 0 0 0 0 0 0 0 0 0 0 0 0 0 0 0 0 0 0 0 0 0 0 0 0 0 0 0 0 0 0 0 0 0 0 0 0 0 0 0 0 0 0 0 0 1.12778 0.845833 0.563889 0.281944 0 0 0 0 0 0 0 0 0 0 0 0 0 0 0 0 0 0 0 0 0 0 0 0 0 0 0 0 0 0 0 0 0 0 0 0 0 0 0 0 0 0 0 0 0 0 0 0 0 0 0 0 0 0 0 0 0 0 0 0 0 0 0 0 0 0 0 0 0 0 0 0 0 1.42109e-014 0 0 0 0 0 0 0 0 0 0 0 0 0 0 0 0 0.649654 0.433103 0.216551 0 0 0 0 0 0 0 0 0 0 0 0 0 0 0 0 0 0 0 0 0 0 0 0 0 0 0 0 0 0 0 0 0 0 0 0 0 0 0 0 0 0 0 0 0 0 0 0 0 0 0 0 0 0 0 0 0 0 0 0 0 0 0 0 0 0 0 0 0 0 0 0 0 0 0 0 0 0 0 0 0 0 0 0 0 0 5.68434e-014 0 0 0 0 0 0 0 0 0 0 0 0 0 0 0 0 0 0 0 0 0 0 0 0 0 0 0 0 0 0 0 0 0 0 0 0 0 0 0 0 0 0 0 0 0 0 0 0 0 0 0 0 0 0 0 0 0 0 0 0 0 0 0 0 0 0 0 0 0 0 0 0 0 0 0 0 0 0 0 0 0 0 0 0 0 0 0 0 0 0 0 0 0 0 0 0 0 0 0 0 0 0 0 0 0 0 0 0 0 0 0 0 0 0 0 0 0 0 0 0 0 0 0 0 0 0 0 0 0 0 0 0 0 0 0 0 0 0 0 0 0 0 0 0 0 0 0 0 0 0 0 0 0 0 0 0 0 0 0 0 1.42109e-014 0 1.42109e-014 0 0 0 0 0 0 0 0 0 0 0 0 0 0 0 0 0 0 0 0 0 0 0 0 0 0 0 0 0 0 0 0 0 0 0 0 0 0 0 0 0 0 0 0 0 0 0 0 0 0 0 0 0 0 0 0 0 0 0 0 0 0 0 0 0 0 0 0 0 0 0 0 0 0 2.84217e-014 2.84217e-014 2.84217e-014 0 0 0 0 0 0 0 0 0 0 0 0 0 0 0 0 0 0 0 0 0 0 0 0 0 0 0 0 0 0 0 0 0 0 0 0 0 0 0 0 0 0 0 0 0 0 0 0 0 0 0 1.42109e-014 0 0 0 0 0 0 0 0 0 0 0 0 0 0 0 0 0 0 0 0 0 0 0 0 0 0 0 0 0 0 0 0 0 0 0 0 0 0 0 0 0 0 0 0 0 0 0 0 0 0 0 0 0 0 0 0 0 0 0 0 0 0 0 0 0 0 0 0 0 0 0 0 0 0 0 0 0 0 0 0 0 0 0 0 0 0 0 0 0 0 0 0 0 0 0 1.42109e-014 0 1.42109e-014 1.75593 0 1.31695 0.877964 0.438982 0 0 0 0 0 0 0 0 0 0 0 0 0 0 0 0 0 0 0 0 0 0 0 0 0 0 0 0 0 0 0 0 0 0 0 0 0 0 0.780666 0.625674 0.417116 0.208558 0.195166 0.390333 0.585499 0 0 0 0 0 0 0 0 0 0 0 0 0 0 0 0 0 0 0 0 0 0 0 0 0 0 0 0 0 0 0 0 0 0 0 0 0 0 0 0 0 0 0 0 0 0 0 0 0 0 0 0 0 0 0 0 0 0 0 0 0 0 0 5.68434e-014 0 0 0 5.68434e-014 0 0 0 0 0 0 0 0 0 0 0 0 0 0 0 0 0 0 0 0 0 0 0 0 0 0 0 0 0 0 0 0 0 0 0 0 0 0 0 0 0 0 0 0 0 0 0 0 0 0 0 0 0 0 0 0 0 0 0 0 0 0 0 0 0 0 0 0 0 0 0 0 0 0 0 0 0 0 0 0 0 0 0 0 0 0 0 0 0 0 0 0 0 0 0 0 0 0 0 0 0 0 0 0 0 0 0 0 0 0 0 0 0 0 0 0 0 0 0 0 0 0 0 0 0 0 0 0 0 0 0 0 0 0 0 0 0 0 0 0 0 0 0 0 0 0 0 0 0 0 0 0 0 0 2.84217e-014 0 2.84217e-014 0 0 0 0 0 0 0 0 0 0 0 0 0 0 0 0 0 0 0 0 0 0 0 0 0 0 0 0 0 0 0 0 0 5.68434e-014 0 5.68434e-014 0 0 0 0 0 0 0 0 0 0 0 0 0 0 0 0 0 0 0 0 0 0 0 0 0 0 0 0 0 0 0 0 0 0 0 0 0 0 0 0 0 0 0 0 0 0 0 0 0 0 0 0 0 0 0 0 0 0 0 0 0 0 0 0 0 0 0 0 0 0 0 0 0 0 0 0 0 0 0 0 0 0 0 0 0 0 0 0 0 0 0 0 0 0 0 0 0 0 0 0 0 0 0 0 0 0 0 0 0 0 0 0 0 0 0 0 0 0 0 0 0 0 0 0 0 0 0 0 0 0 0 0 0 0 0 0 0 0 0 0 0 0.664272 0.498204 0.332136 0.166068 0 0.257901 0.515803 0.773704 0 0.438982 0.877964 1.31695 0 0 0 0 0 0 0 0 0 0 0 0 1.42109e-014 0 1.42109e-014 0 0 0 0 0 0 0 0 0 0 0 0 1.42109e-014 1.42109e-014 1.42109e-014 0 0 0 0 0 0 0 0 0 0 0 0 0 0 0 0 0 0 0 0 0 0 0 0 0 0 0 0 0 0 0 0 0 0 0 0 0 0 0 0 0 0 0 0 0 0 0 0 0 0 0 0 0 0 0 0 0 0 0 0 0 0 0 0 0 0 0 0 0 0 0 0 0 0 0 0 0 0 0 0 0 0 0 0 0 0 0 0 0 0 0 0 0 0 0 0 0 0 0 0 0 0 0 0 0 0 0 0 0 0 0 0 0 0 0 0 0 0 0 0 0 0 0 0 0 0 0 0 0 0 0 0 0 0 0 0 0 2.62735 0.705589 1.41118 2.11677 0 1.97051 1.31367 0.656837 0 0 0 0 0 0 0 0 0 0 0 0 0 0 0 0 0 0 0 0 0 0 0 2.84217e-014 0 0 0.643744 0.193421 0.386842 0.580263 0 0 0 0 0 0 0 0 0 0 0 0 0 0 0 0 0 0 0 0 0 0 0 0 0 0 0 0 0 0 0 0 0 0 0 0 0 0 0 0 0 0 0 0 0 0 0 0 0 0 0 0 0 0 0 0 0 0 0 0 0 0 0 0 0 0 0 0 0 0 0 0 0 0 0 0 0 0 0 0 0 0 0 0 0 0 0 0 0 0 0 0 0 0 0 0 0 0 0 0 0 0 0 0 0 0 0 0 0 0 0 0 0 0 0 0 0 0 0 0 0 0 0 0 0 0 0 0 0 0 0 0 0 0 0 0 0 0 0 0 0 0 0 0 0 0.354175 0 0.265631 0.177088 0.0885438 0.103989 0.207979 0.311968 0 0 0 0 0 0 0 0 0 0 0 0 0 0 0 0 0 0 0 0 0 0 0 0 0 0 0 0 0 0 0 0 0 0 0 0 0 0 0 0 0 0 0 0 0 0 0 0 0 0 0 0 0 0 0 0 0 0 0 0 0 0 0 0 0 0 0 0 0 0 0 0 0 0 0 0 0 0 0 0 0 0 0 0 0 0 0 0 0 0 0 0 0 0 0 0 0 0 0 0 0 0 0 0 0 0 0 0 0 0 0 0 0 0 0 0 0 0 0 0 0 0 0 0 0 0 0 0 0 0 0 0 0 0 0 0 0 0 0 0 0 0 0 0 0.0576362 0 0.0432271 0.0288181 0.014409 0 0.0173508 0.0347016 0.0520524 0 0 0 0 0 0 0 0 0 0 0 0 0 0 0 0 0 0 0 0 0 0 0 0 0 0 0 0 0 0 0 0 0 0 0 0 0 0 0 0 0 0 0 0 0 0 0 0 0 0 0 0 0 0 0 0 0 0 0 0 0 0 0 0 0.12743 0.0973229 0.064882 0.032441 0 0 0 0 0 0 0 0 0 0 0 0 0 0 0 0 0 0 0 0 0 0 0 0 0 0 0 0 0 0 0 0 0 0 0 0 0 0 0 0 0 0 0 0 0 0 0 0 0 0 0 0 0 0 0 0 0 0 0 0 0 0 0 0 0 0 0 0 0 0 0 0 0 0 0 0 0 0 0 0 0 0 0 0 0 0 0 0 0 0 0 0 0 0 0 0 0 0 0 0 0 0 0 0 0 0 0 0 0 0 0 0 0 0 0 0 0 0 0 0 0 0 0 0 0 0 0 0 0 0 0 0 0 0 0 0 0 0 0 0 0 0 0 0 0 0 0 0 0 0 0 0 0 0 0 0 0 0 0 0 0 0 0 0 0 0 0 0 0 0 0 0 0 0 0 0 0 0 0 0 0 0 0 0 0 0 0 0 0 0 0 0 0 0 0 0 0 0 0 0 0 0 0 0 0 0 0 0 0 0 0 0 0 0 0 0 0 0 0 0 0 0 0 0 0 0 0 0 0 0 0 0 0 0 0 0 0 0 0 0 0 0 0 0 0 0 0 0 0 0 0 0 0 0 0 0 0 0 0 0 0 0 0 0 0 0 0 0 0 0 0 0 0 0 0 0 0.618586 0.154647 0.309293 0.46394 0 0 0 0 0 0 0 0 0 0 0 0 0 0.36243 0.140998 0.281995 0.422993 0 0 0 0 0 0 0 0 0 1.63082 1.27835 0.852234 0.426117 0 0 0 0 0 0 0 0 0 0 0 0 0 0 0 0 0 0 0 0 0 0 0 0 0 0 0 0 0 0 0 0 0 0 0 0 0 0 0 0 0 0 0 0 0 0 0 0 0 0 0 0 0 0 0 0 0 0 0 0 0 0 0 0 0 0 0 0 0 0 0 0 0 0 0 0 0 0 0 0 0 0.98 0 0.821755 0.547837 0.273918 0 0 0 0 0 0 0 0 0 0 0 0 0 0 0 0 0 0 0 0 0 0 0 0 0 0 0 0 0 0 0 0 0 0 0 0 0 0 0 0 0 0 0 0 0 0 0 0 0 0 0 0 0 0 0 0 0 1.42109e-014 1.42109e-014 1.42109e-014 0 0 0 0 0 0 0 0 0 0 0 0 0 0 0 0 0 0 0 0 0 0 0 0 0 0 0 0.441 0.882 1.323 1.42109e-014 0 1.42109e-014 0 0 5.68434e-014 0 0 0 5.68434e-014 0 0 0 0 0 0 0 0 0 0 0 0 0 0 0 0 0 0 0 0 0 0 0 0 0 0 0 0 0 0 0 0 0 0 0 0 0 0 0 0 0 0 0 0 0 0 0 0 0 0 0 0 0 0 0 0 0 0 0 0 0 0 0 0 0 0 0 0 0 0 0 0 0 0 0 0 0 0 0.774758 0.581069 0.387379 0.19369 0 0 0 0 0 0 0 0 0 0 0 0 0 0 0 0 0 0 0 0 0 0 0 0 0 0 0 0 0 0 0 0 0 0 0 0 0 0 0 0 0 0 0 0 0 0 0 0 0 0 0 0 0 0 0 0 0 0 0 0 0 0 0 0 0 0 0 0 0 0 0 0 0 0 0 0 0 0 0 0 0 0 0 0 0 0 0 0 0 0 0 0 0 0 0 0 0 0 0 0 0 0 0 0 0 0 0 0 0 0 0 0 0 0 0 0 0 0 0 0 0 0 0 0 0 0 0 0 0 0 0 0 0 0 0 0 0 0 0 0 0 0 0 0 0 0 0 0 0 0 0 0 0 0 0 0 0 0 0 0 0 0 0 0 0 0 0 0 0 0 0 0 0 0 0 0 0 0 0 0 0 0 0 0 1.42109e-014 0 0 0 0 0 0 0 0 0 0 0 0 0 0 0 0 0 0 0 0 0 0 0 0 0 0 0 0 0 0 0 0 0 0 0 0 0 0 0 0 0 0 0 0 0 0 0 0 0 0 0 0 0 0 0 0 0 0.117788 0.0883411 0.0588941 0.029447 0 0 0 0 0 0 0 0 0 0 0 0 0 0 0 0 0 0 0 0 0 0 0 0 0 0 0 0 0 0 0 0 0 0 0 0 0 0 0 0 0 0 0 0 0 0 0 0 0 0 0 0 0 0 0 0 0 0 0 0 0 0 0 0 0 0 0 0 0 0 0 0 0 0 0 0 0 0 0 0 0 0 0 0 0 0 0 0 0 0 0 0.727576 0.181894 0.363788 0.545682 0 0 0 0 0 0 0 0 0 0 0 0 0 0 0 0 0 0 0 0 0 0 0 0 0 0 0 0 0 0 0 0 0 0 0.866206 0.245 0.49 0.735 0 0 0 0 0 0 0 0 0 0 0 0 0 0 0 0 0 0 0 0 0 0 0 0 0 0 0 0 0 0 0 0 0 0 0 0 0 0 0 0 0 0 0 0 0 0 0 0 0 0 0 0 0 0 0 0 0 0 0 0 0 0 0 0 0 0 0 0 0 0 0 0 0 0 0 0 0 0 0 0.602177 0.575228 0.383486 0.191743 0 0 0 0 0 0 0 0 0 0 0 0 0.552679 1.10536 1.65804 0 0 0 0 0 0 0 0 0 0 0 0.273918 0.547837 0.821755 0 0 0 0 0 0 0 0 0 0 0 0 0 0 0 0 0 0 0 0 0 0 0 0 0 0 0 0 0 0 0 0 0 0 0 0 0 0 0 0 0 0 0 0 0 0 0 0.689679 0.517259 0.344839 0.17242 0.172435 0.34487 0.517305 0 0 0 0 0 0 0 0 0 0 0 0 0.692194 0.21878 0.437561 0.656341 0 0 0 0 0 0 0 0.44631 0.734591 0.776987 0.790152 0 0 0 0 0 0 0 0 0 0 0 0 0 0 0 0 0 0 0 0 0 0 0 0 0.547837 0.581069 0.387379 0.19369 0 0 0 0 0 0 0 0 0 0 0 0 0 0 0 0 0 0 0 0 0 0 0 0 0 0 0 0 0 0 0 0 0 0 0 0 0 0 0 0 0 0 0 0 0 0 0 0 0 0 0 0 0 0 0 0 0 0 0 0 0 0 0 0 0 0 0 0 0 0 0 0 0 0 0 0 0 0 0 0 0 0 0 0 0 0 0 0 0 0 0 0 0 0 0 0 0 0 0 0 0 0 0 0 0 0 0 0 0 0 0 0 0 0 0 0 0 0 0 0 0 0 0 0 0 0 0 0 0 0 0 0 0 0 0 0 0 0 0 0 0 0 0 0 0 0 0 0 2.84217e-014 0 2.84217e-014 0.136959 0.273918 0.410877 0 0 0 0 0 0 0 0 0 0 0 0 0 0 0 0 0.0318575 0.0637151 0.0955726 0 0 0 0 0 0 0 0 0 0 0 0 0 0 0 0 0 0 0 0 0 0 0 0 0 0 0 0 0 0 0 0 0 0 0 0 0 0 0 0 0 0 0 0 0 0 0 2.84217e-014 2.84217e-014 0 0 0 0 0 0 0 0 0 0 0 0 0 0 0 0 0.649654 0.433103 0.216551 0.271822 0.181215 0.0906074 0.528973 0.352648 0.176324 0.890513 1.13728 1.38405 0.66329 0.115527 0.432237 0.575228 0.383486 0.191743 0.150544 0.301088 0.451633 0.27334 0.10037 0.0726007 0.381131 0.762261 1.14339 0.735 0.49 0.245 0.291498 0.582996 0.874493 0.303172 0.606344 0.909516 
