# vtk DataFile Version 3.0
vtk output
ASCII
DATASET POLYDATA
POINTS 1700 float
1124 359 0 1124.13 358.996 0 1124.25 358.984 0 
1124.37 358.965 0 1124.5 358.937 0 1124.62 358.902 0 
1124.74 358.86 0 1124.85 358.81 0 1124.96 358.753 0 
1125.07 358.689 0 1125.18 358.618 0 1125.27 358.541 0 
1125.37 358.458 0 1125.46 358.369 0 1125.54 358.275 0 
1125.62 358.176 0 1125.69 358.072 0 1125.75 357.964 0 
1125.81 357.852 0 1125.86 357.736 0 1125.9 357.618 0 
1125.94 357.497 0 1125.96 357.375 0 1125.98 357.251 0 
1126 357.126 0 1126 357 0 1126 356.874 0 
1125.98 356.749 0 1125.96 356.625 0 1125.94 356.503 0 
1125.9 356.382 0 1125.86 356.264 0 1125.81 356.148 0 
1125.75 356.036 0 1125.69 355.928 0 1125.62 355.824 0 
1125.54 355.725 0 1125.46 355.631 0 1125.37 355.542 0 
1125.27 355.459 0 1125.18 355.382 0 1125.07 355.311 0 
1124.96 355.247 0 1124.85 355.19 0 1124.74 355.14 0 
1124.62 355.098 0 1124.5 355.063 0 1124.37 355.035 0 
1124.25 355.016 0 1124.13 355.004 0 1124 355 0 
1123.87 355.004 0 1123.75 355.016 0 1123.63 355.035 0 
1123.5 355.063 0 1123.38 355.098 0 1123.26 355.14 0 
1123.15 355.19 0 1123.04 355.247 0 1122.93 355.311 0 
1122.82 355.382 0 1122.73 355.459 0 1122.63 355.542 0 
1122.54 355.631 0 1122.46 355.725 0 1122.38 355.824 0 
1122.31 355.928 0 1122.25 356.036 0 1122.19 356.148 0 
1122.14 356.264 0 1122.1 356.382 0 1122.06 356.503 0 
1122.04 356.625 0 1122.02 356.749 0 1122 356.874 0 
1122 357 0 1122 357.126 0 1122.02 357.251 0 
1122.04 357.375 0 1122.06 357.497 0 1122.1 357.618 0 
1122.14 357.736 0 1122.19 357.852 0 1122.25 357.964 0 
1122.31 358.072 0 1122.38 358.176 0 1122.46 358.275 0 
1122.54 358.369 0 1122.63 358.458 0 1122.73 358.541 0 
1122.82 358.618 0 1122.93 358.689 0 1123.04 358.753 0 
1123.15 358.81 0 1123.26 358.86 0 1123.38 358.902 0 
1123.5 358.937 0 1123.63 358.965 0 1123.75 358.984 0 
1123.87 358.996 0 1082 349 0 1082.13 348.996 0 
1082.25 348.984 0 1082.37 348.965 0 1082.5 348.937 0 
1082.62 348.902 0 1082.74 348.86 0 1082.85 348.81 0 
1082.96 348.753 0 1083.07 348.689 0 1083.18 348.618 0 
1083.27 348.541 0 1083.37 348.458 0 1083.46 348.369 0 
1083.54 348.275 0 1083.62 348.176 0 1083.69 348.072 0 
1083.75 347.964 0 1083.81 347.852 0 1083.86 347.736 0 
1083.9 347.618 0 1083.94 347.497 0 1083.96 347.375 0 
1083.98 347.251 0 1084 347.126 0 1084 347 0 
1084 346.874 0 1083.98 346.749 0 1083.96 346.625 0 
1083.94 346.503 0 1083.9 346.382 0 1083.86 346.264 0 
1083.81 346.148 0 1083.75 346.036 0 1083.69 345.928 0 
1083.62 345.824 0 1083.54 345.725 0 1083.46 345.631 0 
1083.37 345.542 0 1083.27 345.459 0 1083.18 345.382 0 
1083.07 345.311 0 1082.96 345.247 0 1082.85 345.19 0 
1082.74 345.14 0 1082.62 345.098 0 1082.5 345.063 0 
1082.37 345.035 0 1082.25 345.016 0 1082.13 345.004 0 
1082 345 0 1081.87 345.004 0 1081.75 345.016 0 
1081.63 345.035 0 1081.5 345.063 0 1081.38 345.098 0 
1081.26 345.14 0 1081.15 345.19 0 1081.04 345.247 0 
1080.93 345.311 0 1080.82 345.382 0 1080.73 345.459 0 
1080.63 345.542 0 1080.54 345.631 0 1080.46 345.725 0 
1080.38 345.824 0 1080.31 345.928 0 1080.25 346.036 0 
1080.19 346.148 0 1080.14 346.264 0 1080.1 346.382 0 
1080.06 346.503 0 1080.04 346.625 0 1080.02 346.749 0 
1080 346.874 0 1080 347 0 1080 347.126 0 
1080.02 347.251 0 1080.04 347.375 0 1080.06 347.497 0 
1080.1 347.618 0 1080.14 347.736 0 1080.19 347.852 0 
1080.25 347.964 0 1080.31 348.072 0 1080.38 348.176 0 
1080.46 348.275 0 1080.54 348.369 0 1080.63 348.458 0 
1080.73 348.541 0 1080.82 348.618 0 1080.93 348.689 0 
1081.04 348.753 0 1081.15 348.81 0 1081.26 348.86 0 
1081.38 348.902 0 1081.5 348.937 0 1081.63 348.965 0 
1081.75 348.984 0 1081.87 348.996 0 180 414 0 
180.126 413.996 0 180.251 413.984 0 180.375 413.965 0 
180.497 413.937 0 180.618 413.902 0 180.736 413.86 0 
180.852 413.81 0 180.964 413.753 0 181.072 413.689 0 
181.176 413.618 0 181.275 413.541 0 181.369 413.458 0 
181.458 413.369 0 181.541 413.275 0 181.618 413.176 0 
181.689 413.072 0 181.753 412.964 0 181.81 412.852 0 
181.86 412.736 0 181.902 412.618 0 181.937 412.497 0 
181.965 412.375 0 181.984 412.251 0 181.996 412.126 0 
182 412 0 181.996 411.874 0 181.984 411.749 0 
181.965 411.625 0 181.937 411.503 0 181.902 411.382 0 
181.86 411.264 0 181.81 411.148 0 181.753 411.036 0 
181.689 410.928 0 181.618 410.824 0 181.541 410.725 0 
181.458 410.631 0 181.369 410.542 0 181.275 410.459 0 
181.176 410.382 0 181.072 410.311 0 180.964 410.247 0 
180.852 410.19 0 180.736 410.14 0 180.618 410.098 0 
180.497 410.063 0 180.375 410.035 0 180.251 410.016 0 
180.126 410.004 0 180 410 0 179.874 410.004 0 
179.749 410.016 0 179.625 410.035 0 179.503 410.063 0 
179.382 410.098 0 179.264 410.14 0 179.148 410.19 0 
179.036 410.247 0 178.928 410.311 0 178.824 410.382 0 
178.725 410.459 0 178.631 410.542 0 178.542 410.631 0 
178.459 410.725 0 178.382 410.824 0 178.311 410.928 0 
178.247 411.036 0 178.19 411.148 0 178.14 411.264 0 
178.098 411.382 0 178.063 411.503 0 178.035 411.625 0 
178.016 411.749 0 178.004 411.874 0 178 412 0 
178.004 412.126 0 178.016 412.251 0 178.035 412.375 0 
178.063 412.497 0 178.098 412.618 0 178.14 412.736 0 
178.19 412.852 0 178.247 412.964 0 178.311 413.072 0 
178.382 413.176 0 178.459 413.275 0 178.542 413.369 0 
178.631 413.458 0 178.725 413.541 0 178.824 413.618 0 
178.928 413.689 0 179.036 413.753 0 179.148 413.81 0 
179.264 413.86 0 179.382 413.902 0 179.503 413.937 0 
179.625 413.965 0 179.749 413.984 0 179.874 413.996 0 
372 248 0 372.126 247.996 0 372.251 247.984 0 
372.375 247.965 0 372.497 247.937 0 372.618 247.902 0 
372.736 247.86 0 372.852 247.81 0 372.964 247.753 0 
373.072 247.689 0 373.176 247.618 0 373.275 247.541 0 
373.369 247.458 0 373.458 247.369 0 373.541 247.275 0 
373.618 247.176 0 373.689 247.072 0 373.753 246.964 0 
373.81 246.852 0 373.86 246.736 0 373.902 246.618 0 
373.937 246.497 0 373.965 246.375 0 373.984 246.251 0 
373.996 246.126 0 374 246 0 373.996 245.874 0 
373.984 245.749 0 373.965 245.625 0 373.937 245.503 0 
373.902 245.382 0 373.86 245.264 0 373.81 245.148 0 
373.753 245.036 0 373.689 244.928 0 373.618 244.824 0 
373.541 244.725 0 373.458 244.631 0 373.369 244.542 0 
373.275 244.459 0 373.176 244.382 0 373.072 244.311 0 
372.964 244.247 0 372.852 244.19 0 372.736 244.14 0 
372.618 244.098 0 372.497 244.063 0 372.375 244.035 0 
372.251 244.016 0 372.126 244.004 0 372 244 0 
371.874 244.004 0 371.749 244.016 0 371.625 244.035 0 
371.503 244.063 0 371.382 244.098 0 371.264 244.14 0 
371.148 244.19 0 371.036 244.247 0 370.928 244.311 0 
370.824 244.382 0 370.725 244.459 0 370.631 244.542 0 
370.542 244.631 0 370.459 244.725 0 370.382 244.824 0 
370.311 244.928 0 370.247 245.036 0 370.19 245.148 0 
370.14 245.264 0 370.098 245.382 0 370.063 245.503 0 
370.035 245.625 0 370.016 245.749 0 370.004 245.874 0 
370 246 0 370.004 246.126 0 370.016 246.251 0 
370.035 246.375 0 370.063 246.497 0 370.098 246.618 0 
370.14 246.736 0 370.19 246.852 0 370.247 246.964 0 
370.311 247.072 0 370.382 247.176 0 370.459 247.275 0 
370.542 247.369 0 370.631 247.458 0 370.725 247.541 0 
370.824 247.618 0 370.928 247.689 0 371.036 247.753 0 
371.148 247.81 0 371.264 247.86 0 371.382 247.902 0 
371.503 247.937 0 371.625 247.965 0 371.749 247.984 0 
371.874 247.996 0 314 456 0 314.126 455.996 0 
314.251 455.984 0 314.375 455.965 0 314.497 455.937 0 
314.618 455.902 0 314.736 455.86 0 314.852 455.81 0 
314.964 455.753 0 315.072 455.689 0 315.176 455.618 0 
315.275 455.541 0 315.369 455.458 0 315.458 455.369 0 
315.541 455.275 0 315.618 455.176 0 315.689 455.072 0 
315.753 454.964 0 315.81 454.852 0 315.86 454.736 0 
315.902 454.618 0 315.937 454.497 0 315.965 454.375 0 
315.984 454.251 0 315.996 454.126 0 316 454 0 
315.996 453.874 0 315.984 453.749 0 315.965 453.625 0 
315.937 453.503 0 315.902 453.382 0 315.86 453.264 0 
315.81 453.148 0 315.753 453.036 0 315.689 452.928 0 
315.618 452.824 0 315.541 452.725 0 315.458 452.631 0 
315.369 452.542 0 315.275 452.459 0 315.176 452.382 0 
315.072 452.311 0 314.964 452.247 0 314.852 452.19 0 
314.736 452.14 0 314.618 452.098 0 314.497 452.063 0 
314.375 452.035 0 314.251 452.016 0 314.126 452.004 0 
314 452 0 313.874 452.004 0 313.749 452.016 0 
313.625 452.035 0 313.503 452.063 0 313.382 452.098 0 
313.264 452.14 0 313.148 452.19 0 313.036 452.247 0 
312.928 452.311 0 312.824 452.382 0 312.725 452.459 0 
312.631 452.542 0 312.542 452.631 0 312.459 452.725 0 
312.382 452.824 0 312.311 452.928 0 312.247 453.036 0 
312.19 453.148 0 312.14 453.264 0 312.098 453.382 0 
312.063 453.503 0 312.035 453.625 0 312.016 453.749 0 
312.004 453.874 0 312 454 0 312.004 454.126 0 
312.016 454.251 0 312.035 454.375 0 312.063 454.497 0 
312.098 454.618 0 312.14 454.736 0 312.19 454.852 0 
312.247 454.964 0 312.311 455.072 0 312.382 455.176 0 
312.459 455.275 0 312.542 455.369 0 312.631 455.458 0 
312.725 455.541 0 312.824 455.618 0 312.928 455.689 0 
313.036 455.753 0 313.148 455.81 0 313.264 455.86 0 
313.382 455.902 0 313.503 455.937 0 313.625 455.965 0 
313.749 455.984 0 313.874 455.996 0 551 166 0 
551.126 165.996 0 551.251 165.984 0 551.375 165.965 0 
551.497 165.937 0 551.618 165.902 0 551.736 165.86 0 
551.852 165.81 0 551.964 165.753 0 552.072 165.689 0 
552.176 165.618 0 552.275 165.541 0 552.369 165.458 0 
552.458 165.369 0 552.541 165.275 0 552.618 165.176 0 
552.689 165.072 0 552.753 164.964 0 552.81 164.852 0 
552.86 164.736 0 552.902 164.618 0 552.937 164.497 0 
552.965 164.375 0 552.984 164.251 0 552.996 164.126 0 
553 164 0 552.996 163.874 0 552.984 163.749 0 
552.965 163.625 0 552.937 163.503 0 552.902 163.382 0 
552.86 163.264 0 552.81 163.148 0 552.753 163.036 0 
552.689 162.928 0 552.618 162.824 0 552.541 162.725 0 
552.458 162.631 0 552.369 162.542 0 552.275 162.459 0 
552.176 162.382 0 552.072 162.311 0 551.964 162.247 0 
551.852 162.19 0 551.736 162.14 0 551.618 162.098 0 
551.497 162.063 0 551.375 162.035 0 551.251 162.016 0 
551.126 162.004 0 551 162 0 550.874 162.004 0 
550.749 162.016 0 550.625 162.035 0 550.503 162.063 0 
[...]
POINT_DATA 1700
SCALARS scales float
LOOKUP_TABLE default
4 4 4 4 4 4 4 4 4 
4 4 4 4 4 4 4 4 4 
4 4 4 4 4 4 4 4 4 
4 4 4 4 4 4 4 4 4 
4 4 4 4 4 4 4 4 4 
4 4 4 4 4 4 4 4 4 
4 4 4 4 4 4 4 4 4 
4 4 4 4 4 4 4 4 4 
4 4 4 4 4 4 4 4 4 
4 4 4 4 4 4 4 4 4 
4 4 4 4 4 4 4 4 4 
4 4 4 4 4 4 4 4 4 
4 4 4 4 4 4 4 4 4 
4 4 4 4 4 4 4 4 4 
4 4 4 4 4 4 4 4 4 
4 4 4 4 4 4 4 4 4 
4 4 4 4 4 4 4 4 4 
4 4 4 4 4 4 4 4 4 
4 4 4 4 4 4 4 4 4 
4 4 4 4 4 4 4 4 4 
4 4 4 4 4 4 4 4 4 
4 4 4 4 4 4 4 4 4 
4 4 4 4 4 4 4 4 4 
4 4 4 4 4 4 4 4 4 
4 4 4 4 4 4 4 4 4 
4 4 4 4 4 4 4 4 4 
4 4 4 4 4 4 4 4 4 
4 4 4 4 4 4 4 4 4 
4 4 4 4 4 4 4 4 4 
4 4 4 4 4 4 4 4 4 
4 4 4 4 4 4 4 4 4 
4 4 4 4 4 4 4 4 4 
4 4 4 4 4 4 4 4 4 
4 4 4 4 4 4 4 4 4 
4 4 4 4 4 4 4 4 4 
4 4 4 4 4 4 4 4 4 
4 4 4 4 4 4 4 4 4 
4 4 4 4 4 4 4 4 4 
4 4 4 4 4 4 4 4 4 
4 4 4 4 4 4 4 4 4 
4 4 4 4 4 4 4 4 4 
4 4 4 4 4 4 4 4 4 
4 4 4 4 4 4 4 4 4 
4 4 4 4 4 4 4 4 4 
4 4 4 4 4 4 4 4 4 
4 4 4 4 4 4 4 4 4 
4 4 4 4 4 4 4 4 4 
4 4 4 4 4 4 4 4 4 
4 4 4 4 4 4 4 4 4 
4 4 4 4 4 4 4 4 4 
4 4 4 4 4 4 4 4 4 
4 4 4 4 4 4 4 4 4 
4 4 4 4 4 4 4 4 4 
4 4 4 4 4 4 4 4 4 
4 4 4 4 4 4 4 4 4 
4 4 4 4 4 4 4 4 4 
4 4 4 4 4 4 4 4 4 
4 4 4 4 4 4 4 4 4 
4 4 4 4 4 4 4 4 4 
4 4 4 4 4 4 4 4 4 
4 4 4 4 4 4 4 4 4 
4 4 4 4 4 4 4 4 4 
4 4 4 4 4 4 4 4 4 
4 4 4 4 4 4 4 4 4 
4 4 4 4 4 4 4 4 4 
4 4 4 4 4 4 4 4 4 
4 4 4 4 4 4 4 4 4 
4 4 4 4 4 4 4 4 4 
4 4 4 4 4 4 4 4 4 
4 4 4 4 4 4 4 4 4 
4 4 4 4 4 4 4 4 4 
4 4 4 4 4 4 4 4 4 
4 4 4 4 4 4 4 4 4 
4 4 4 4 4 4 4 4 4 
4 4 4 4 4 4 4 4 4 
4 4 4 4 4 4 4 4 4 
4 4 4 4 4 4 4 4 4 
4 4 4 4 4 4 4 4 4 
4 4 4 4 4 4 4 4 4 
4 4 4 4 4 4 4 4 4 
4 4 4 4 4 4 4 4 4 
4 4 4 4 4 4 4 4 4 
4 4 4 4 4 4 4 4 4 
4 4 4 4 4 4 4 4 4 
4 4 4 4 4 4 4 4 4 
4 4 4 4 4 4 4 4 4 
4 4 4 4 4 4 4 4 4 
4 4 4 4 4 4 4 4 4 
4 4 4 4 4 4 4 4 4 
4 4 4 4 4 4 4 4 4 
4 4 4 4 4 4 4 4 4 
4 4 4 4 4 4 4 4 4 
4 4 4 4 4 4 4 4 4 
4 4 4 4 4 4 4 4 4 
4 4 4 4 4 4 4 4 4 
4 4 4 4 4 4 4 4 4 
4 4 4 4 4 4 4 4 4 
4 4 4 4 4 4 4 4 4 
4 4 4 4 4 4 4 4 4 
4 4 4 4 4 4 4 4 4 
4 4 4 4 4 4 4 4 4 
4 4 4 4 4 4 4 4 4 
4 4 4 4 4 4 4 4 4 
4 4 4 4 4 4 4 4 4 
4 4 4 4 4 4 4 4 4 
4 4 4 4 4 4 4 4 4 
4 4 4 4 4 4 4 4 4 
4 4 4 4 4 4 4 4 4 
4 4 4 4 4 4 4 4 4 
4 4 4 4 4 4 4 4 4 
4 4 4 4 4 4 4 4 4 
4 4 4 4 4 4 4 4 4 
4 4 4 4 4 4 4 4 4 
4 4 4 4 4 4 4 4 4 
4 4 4 4 4 4 4 4 4 
4 4 4 4 4 4 4 4 4 
4 4 4 4 4 4 4 4 4 
4 4 4 4 4 4 4 4 4 
4 4 4 4 4 4 4 4 4 
4 4 4 4 4 4 4 4 4 
4 4 4 4 4 4 4 4 4 
4 4 4 4 4 4 4 4 4 
4 4 4 4 4 4 4 4 4 
4 4 4 4 4 4 4 4 4 
4 4 4 4 4 4 4 4 4 
4 4 4 4 4 4 4 4 4 
4 4 4 4 4 4 4 4 4 
4 4 4 4 4 4 4 4 4 
4 4 4 4 4 4 4 4 4 
4 4 4 4 4 4 4 4 4 
4 4 4 4 4 4 4 4 4 
4 4 4 4 4 4 4 4 4 
4 4 4 4 4 4 4 4 4 
4 4 4 4 4 4 4 4 4 
4 4 4 4 4 4 4 4 4 
4 4 4 4 4 4 4 4 4 
4 4 4 4 4 4 4 4 4 
4 4 4 4 4 4 4 4 4 
4 4 4 4 4 4 4 4 4 
4 4 4 4 4 4 4 4 4 
4 4 4 4 4 4 4 4 4 
4 4 4 4 4 4 4 4 4 
4 4 4 4 4 4 4 4 4 
4 4 4 4 4 4 4 4 4 
4 4 4 4 4 4 4 4 4 
4 4 4 4 4 4 4 4 4 
4 4 4 4 4 4 4 4 4 
4 4 4 4 4 4 4 4 4 
4 4 4 4 4 4 4 4 4 
4 4 4 4 4 4 4 4 4 
4 4 4 4 4 4 4 4 4 
4 4 4 4 4 4 4 4 4 
4 4 4 4 4 4 4 4 4 
4 4 4 4 4 4 4 4 4 
4 4 4 4 4 4 4 4 4 
4 4 4 4 4 4 4 4 4 
4 4 4 4 4 4 4 4 4 
4 4 4 4 4 4 4 4 4 
4 4 4 4 4 4 4 4 4 
4 4 4 4 4 4 4 4 4 
4 4 4 4 4 4 4 4 4 
4 4 4 4 4 4 4 4 4 
4 4 4 4 4 4 4 4 4 
4 4 4 4 4 4 4 4 4 
4 4 4 4 4 4 4 4 4 
4 4 4 4 4 4 4 4 4 
4 4 4 4 4 4 4 4 4 
4 4 4 4 4 4 4 4 4 
4 4 4 4 4 4 4 4 4 
4 4 4 4 4 4 4 4 4 
4 4 4 4 4 4 4 4 4 
4 4 4 4 4 4 4 4 4 
4 4 4 4 4 4 4 4 4 
4 4 4 4 4 4 4 4 4 
4 4 4 4 4 4 4 4 4 
4 4 4 4 4 4 4 4 4 
4 4 4 4 4 4 4 4 4 
4 4 4 4 4 4 4 4 4 
4 4 4 4 4 4 4 4 4 
4 4 4 4 4 4 4 4 4 
4 4 4 4 4 4 4 4 4 
4 4 4 4 4 4 4 4 4 
4 4 4 4 4 4 4 4 4 
4 4 4 4 4 4 4 4 4 
4 4 4 4 4 4 4 4 4 
4 4 4 4 4 4 4 4 4 
4 4 4 4 4 4 4 4 4 
4 4 4 4 4 4 4 4 4 
4 4 4 4 4 4 4 4 
FIELD FieldData 1
Colors 3 1700 unsigned_char
153 0 153 153 0 153 153 0 153 
153 0 153 153 0 153 153 0 153 
153 0 153 153 0 153 153 0 153 
153 0 153 153 0 153 153 0 153 
153 0 153 153 0 153 153 0 153 
153 0 153 153 0 153 153 0 153 
153 0 153 153 0 153 153 0 153 
153 0 153 153 0 153 153 0 153 
153 0 153 153 0 153 153 0 153 
153 0 153 153 0 153 153 0 153 
153 0 153 153 0 153 153 0 153 
153 0 153 153 0 153 153 0 153 
153 0 153 153 0 153 153 0 153 
153 0 153 153 0 153 153 0 153 
153 0 153 153 0 153 153 0 153 
153 0 153 153 0 153 153 0 153 
153 0 153 153 0 153 153 0 153 
153 0 153 153 0 153 153 0 153 
153 0 153 153 0 153 153 0 153 
153 0 153 153 0 153 153 0 153 
153 0 153 153 0 153 153 0 153 
153 0 153 153 0 153 153 0 153 
153 0 153 153 0 153 153 0 153 
153 0 153 153 0 153 153 0 153 
153 0 153 153 0 153 153 0 153 
153 0 153 153 0 153 153 0 153 
153 0 153 153 0 153 153 0 153 
153 0 153 153 0 153 153 0 153 
153 0 153 153 0 153 153 0 153 
153 0 153 153 0 153 153 0 153 
153 0 153 153 0 153 153 0 153 
153 0 153 153 0 153 153 0 153 
153 0 153 153 0 153 153 0 153 
153 0 153 153 0 153 153 0 153 
153 0 153 153 0 153 153 0 153 
153 0 153 153 0 153 153 0 153 
153 0 153 153 0 153 153 0 153 
153 0 153 153 0 153 153 0 153 
153 0 153 153 0 153 153 0 153 
153 0 153 153 0 153 153 0 153 
153 0 153 153 0 153 153 0 153 
153 0 153 153 0 153 153 0 153 
153 0 153 153 0 153 153 0 153 
153 0 153 153 0 153 153 0 153 
153 0 153 153 0 153 153 0 153 
153 0 153 153 0 153 153 0 153 
153 0 153 153 0 153 153 0 153 
153 0 153 153 0 153 153 0 153 
153 0 153 153 0 153 153 0 153 
153 0 153 153 0 153 153 0 153 
153 0 153 153 0 153 153 0 153 
153 0 153 153 0 153 153 0 153 
153 0 153 153 0 153 153 0 153 
153 0 153 153 0 153 153 0 153 
153 0 153 153 0 153 153 0 153 
153 0 153 153 0 153 153 0 153 
153 0 153 153 0 153 153 0 153 
153 0 153 153 0 153 153 0 153 
153 0 153 153 0 153 153 0 153 
153 0 153 153 0 153 153 0 153 
153 0 153 153 0 153 153 0 153 
153 0 153 153 0 153 153 0 153 
153 0 153 153 0 153 153 0 153 
153 0 153 153 0 153 153 0 153 
153 0 153 153 0 153 153 0 153 
153 0 153 153 0 153 153 0 153 
153 0 153 153 0 153 153 0 153 
153 0 153 153 0 153 153 0 153 
153 0 153 153 0 153 153 0 153 
153 0 153 153 0 153 153 0 153 
153 0 153 153 0 153 153 0 153 
153 0 153 153 0 153 153 0 153 
153 0 153 153 0 153 153 0 153 
153 0 153 153 0 153 153 0 153 
153 0 153 153 0 153 153 0 153 
153 0 153 153 0 153 153 0 153 
153 0 153 153 0 153 153 0 153 
153 0 153 153 0 153 153 0 153 
153 0 153 153 0 153 153 0 153 
153 0 153 153 0 153 153 0 153 
153 0 153 153 0 153 153 0 153 
153 0 153 153 0 153 153 0 153 
153 0 153 153 0 153 153 0 153 
153 0 153 153 0 153 153 0 153 
153 0 153 153 0 153 153 0 153 
153 0 153 153 0 153 153 0 153 
153 0 153 153 0 153 153 0 153 
153 0 153 153 0 153 153 0 153 
153 0 153 153 0 153 153 0 153 
153 0 153 153 0 153 153 0 153 
153 0 153 153 0 153 153 0 153 
153 0 153 153 0 153 153 0 153 
153 0 153 153 0 153 153 0 153 
153 0 153 153 0 153 153 0 153 
153 0 153 153 0 153 153 0 153 
153 0 153 153 0 153 153 0 153 
153 0 153 153 0 153 153 0 153 
153 0 153 153 0 153 153 0 153 
153 0 153 153 0 153 153 0 153 
153 0 153 153 0 153 153 0 153 
153 0 153 153 0 153 153 0 153 
153 0 153 153 0 153 153 0 153 
153 0 153 153 0 153 153 0 153 
153 0 153 153 0 153 153 0 153 
153 0 153 153 0 153 153 0 153 
153 0 153 153 0 153 153 0 153 
153 0 153 153 0 153 153 0 153 
153 0 153 153 0 153 153 0 153 
153 0 153 153 0 153 153 0 153 
153 0 153 153 0 153 153 0 153 
153 0 153 153 0 153 153 0 153 
153 0 153 153 0 153 153 0 153 
153 0 153 153 0 153 153 0 153 
153 0 153 153 0 153 153 0 153 
153 0 153 153 0 153 153 0 153 
153 0 153 153 0 153 153 0 153 
153 0 153 153 0 153 153 0 153 
153 0 153 153 0 153 153 0 153 
153 0 153 153 0 153 153 0 153 
153 0 153 153 0 153 153 0 153 
153 0 153 153 0 153 153 0 153 
153 0 153 153 0 153 153 0 153 
153 0 153 153 0 153 153 0 153 
153 0 153 153 0 153 153 0 153 
153 0 153 153 0 153 153 0 153 
153 0 153 153 0 153 153 0 153 
153 0 153 153 0 153 153 0 153 
153 0 153 153 0 153 153 0 153 
153 0 153 153 0 153 153 0 153 
153 0 153 153 0 153 153 0 153 
153 0 153 153 0 153 153 0 153 
153 0 153 153 0 153 153 0 153 
153 0 153 153 0 153 153 0 153 
153 0 153 153 0 153 153 0 153 
153 0 153 153 0 153 153 0 153 
153 0 153 153 0 153 153 0 153 
153 0 153 153 0 153 153 0 153 
153 0 153 153 0 153 153 0 153 
153 0 153 153 0 153 153 0 153 
153 0 153 153 0 153 153 0 153 
153 0 153 153 0 153 153 0 153 
153 0 153 153 0 153 153 0 153 
153 0 153 153 0 153 153 0 153 
153 0 153 153 0 153 153 0 153 
153 0 153 153 0 153 153 0 153 
153 0 153 153 0 153 153 0 153 
153 0 153 153 0 153 153 0 153 
153 0 153 153 0 153 153 0 153 
153 0 153 153 0 153 153 0 153 
153 0 153 153 0 153 153 0 153 
153 0 153 153 0 153 153 0 153 
153 0 153 153 0 153 153 0 153 
153 0 153 153 0 153 153 0 153 
153 0 153 153 0 153 153 0 153 
153 0 153 153 0 153 153 0 153 
153 0 153 153 0 153 153 0 153 
153 0 153 153 0 153 153 0 153 
153 0 153 153 0 153 153 0 153 
153 0 153 153 0 153 153 0 153 
153 0 153 153 0 153 153 0 153 
153 0 153 153 0 153 153 0 153 
153 0 153 153 0 153 153 0 153 
153 0 153 153 0 153 153 0 153 
153 0 153 153 0 153 153 0 153 
153 0 153 153 0 153 153 0 153 
153 0 153 153 0 153 153 0 153 
153 0 153 153 0 153 153 0 153 
153 0 153 153 0 153 153 0 153 
153 0 153 153 0 153 153 0 153 
153 0 153 153 0 153 153 0 153 
153 0 153 153 0 153 153 0 153 
153 0 153 153 0 153 153 0 153 
153 0 153 153 0 153 153 0 153 
153 0 153 153 0 153 153 0 153 
153 0 153 153 0 153 153 0 153 
153 0 153 153 0 153 153 0 153 
153 0 153 153 0 153 153 0 153 
153 0 153 153 0 153 153 0 153 
153 0 153 153 0 153 153 0 153 
153 0 153 153 0 153 153 0 153 
153 0 153 153 0 153 153 0 153 
153 0 153 153 0 153 153 0 153 
153 0 153 153 0 153 153 0 153 
153 0 153 153 0 153 153 0 153 
153 0 153 153 0 153 153 0 153 
153 0 153 153 0 153 153 0 153 
153 0 153 153 0 153 153 0 153 
153 0 153 153 0 153 153 0 153 
153 0 153 153 0 153 153 0 153 
153 0 153 153 0 153 153 0 153 
153 0 153 153 0 153 153 0 153 
153 0 153 153 0 153 153 0 153 
153 0 153 153 0 153 153 0 153 
153 0 153 153 0 153 153 0 153 
153 0 153 153 0 153 153 0 153 
153 0 153 153 0 153 153 0 153 
153 0 153 153 0 153 153 0 153 
153 0 153 153 0 153 153 0 153 
153 0 153 153 0 153 153 0 153 
153 0 153 153 0 153 153 0 153 
153 0 153 153 0 153 153 0 153 
153 0 153 153 0 153 153 0 153 
153 0 153 153 0 153 153 0 153 
153 0 153 153 0 153 153 0 153 
153 0 153 153 0 153 153 0 153 
153 0 153 153 0 153 153 0 153 
153 0 153 153 0 153 153 0 153 
153 0 153 153 0 153 153 0 153 
153 0 153 153 0 153 153 0 153 
153 0 153 153 0 153 153 0 153 
153 0 153 153 0 153 153 0 153 
153 0 153 153 0 153 153 0 153 
153 0 153 153 0 153 153 0 153 
153 0 153 153 0 153 153 0 153 
153 0 153 153 0 153 153 0 153 
153 0 153 153 0 153 153 0 153 
153 0 153 153 0 153 153 0 153 
153 0 153 153 0 153 153 0 153 
153 0 153 153 0 153 153 0 153 
153 0 153 153 0 153 153 0 153 
153 0 153 153 0 153 153 0 153 
153 0 153 153 0 153 153 0 153 
153 0 153 153 0 153 153 0 153 
153 0 153 153 0 153 153 0 153 
153 0 153 153 0 153 153 0 153 
153 0 153 153 0 153 153 0 153 
153 0 153 153 0 153 153 0 153 
153 0 153 153 0 153 153 0 153 
153 0 153 153 0 153 153 0 153 
153 0 153 153 0 153 153 0 153 
153 0 153 153 0 153 153 0 153 
153 0 153 153 0 153 153 0 153 
153 0 153 153 0 153 153 0 153 
153 0 153 153 0 153 153 0 153 
153 0 153 153 0 153 153 0 153 
153 0 153 153 0 153 153 0 153 
153 0 153 153 0 153 153 0 153 
153 0 153 153 0 153 153 0 153 
153 0 153 153 0 153 153 0 153 
153 0 153 153 0 153 153 0 153 
153 0 153 153 0 153 153 0 153 
153 0 153 153 0 153 153 0 153 
153 0 153 153 0 153 153 0 153 
153 0 153 153 0 153 153 0 153 
153 0 153 153 0 153 153 0 153 
153 0 153 153 0 153 153 0 153 
153 0 153 153 0 153 153 0 153 
153 0 153 153 0 153 153 0 153 
153 0 153 153 0 153 153 0 153 
153 0 153 153 0 153 153 0 153 
153 0 153 153 0 153 153 0 153 
153 0 153 153 0 153 153 0 153 
153 0 153 153 0 153 153 0 153 
153 0 153 153 0 153 153 0 153 
153 0 153 153 0 153 153 0 153 
153 0 153 153 0 153 153 0 153 
153 0 153 153 0 153 153 0 153 
153 0 153 153 0 153 153 0 153 
153 0 153 153 0 153 153 0 153 
153 0 153 153 0 153 153 0 153 
153 0 153 153 0 153 153 0 153 
153 0 153 153 0 153 153 0 153 
153 0 153 153 0 153 153 0 153 
153 0 153 153 0 153 153 0 153 
153 0 153 153 0 153 153 0 153 
153 0 153 153 0 153 153 0 153 
153 0 153 153 0 153 153 0 153 
153 0 153 153 0 153 153 0 153 
153 0 153 153 0 153 153 0 153 
153 0 153 153 0 153 153 0 153 
153 0 153 153 0 153 153 0 153 
153 0 153 153 0 153 153 0 153 
153 0 153 153 0 153 153 0 153 
153 0 153 153 0 153 153 0 153 
153 0 153 153 0 153 153 0 153 
153 0 153 153 0 153 153 0 153 
153 0 153 153 0 153 153 0 153 
153 0 153 153 0 153 153 0 153 
153 0 153 153 0 153 153 0 153 
153 0 153 153 0 153 153 0 153 
153 0 153 153 0 153 153 0 153 
153 0 153 153 0 153 153 0 153 
153 0 153 153 0 153 153 0 153 
153 0 153 153 0 153 153 0 153 
153 0 153 153 0 153 153 0 153 
153 0 153 153 0 153 153 0 153 
153 0 153 153 0 153 153 0 153 
153 0 153 153 0 153 153 0 153 
153 0 153 153 0 153 153 0 153 
153 0 153 153 0 153 153 0 153 
153 0 153 153 0 153 153 0 153 
153 0 153 153 0 153 153 0 153 
153 0 153 153 0 153 153 0 153 
153 0 153 153 0 153 153 0 153 
153 0 153 153 0 153 153 0 153 
153 0 153 153 0 153 153 0 153 
153 0 153 153 0 153 153 0 153 
153 0 153 153 0 153 153 0 153 
153 0 153 153 0 153 153 0 153 
153 0 153 153 0 153 153 0 153 
153 0 153 153 0 153 153 0 153 
153 0 153 153 0 153 153 0 153 
153 0 153 153 0 153 153 0 153 
153 0 153 153 0 153 153 0 153 
153 0 153 153 0 153 153 0 153 
153 0 153 153 0 153 153 0 153 
153 0 153 153 0 153 153 0 153 
153 0 153 153 0 153 153 0 153 
153 0 153 153 0 153 153 0 153 
153 0 153 153 0 153 153 0 153 
153 0 153 153 0 153 153 0 153 
153 0 153 153 0 153 153 0 153 
153 0 153 153 0 153 153 0 153 
153 0 153 153 0 153 153 0 153 
153 0 153 153 0 153 153 0 153 
153 0 153 153 0 153 153 0 153 
153 0 153 153 0 153 153 0 153 
153 0 153 153 0 153 153 0 153 
153 0 153 153 0 153 153 0 153 
153 0 153 153 0 153 153 0 153 
153 0 153 153 0 153 153 0 153 
153 0 153 153 0 153 153 0 153 
153 0 153 153 0 153 153 0 153 
153 0 153 153 0 153 153 0 153 
153 0 153 153 0 153 153 0 153 
153 0 153 153 0 153 153 0 153 
153 0 153 153 0 153 153 0 153 
153 0 153 153 0 153 153 0 153 
153 0 153 153 0 153 153 0 153 
153 0 153 153 0 153 153 0 153 
153 0 153 153 0 153 153 0 153 
153 0 153 153 0 153 153 0 153 
153 0 153 153 0 153 153 0 153 
153 0 153 153 0 153 153 0 153 
153 0 153 153 0 153 153 0 153 
153 0 153 153 0 153 153 0 153 
153 0 153 153 0 153 153 0 153 
153 0 153 153 0 153 153 0 153 
153 0 153 153 0 153 153 0 153 
153 0 153 153 0 153 153 0 153 
153 0 153 153 0 153 153 0 153 
153 0 153 153 0 153 153 0 153 
153 0 153 153 0 153 153 0 153 
153 0 153 153 0 153 153 0 153 
153 0 153 153 0 153 153 0 153 
153 0 153 153 0 153 153 0 153 
153 0 153 153 0 153 153 0 153 
153 0 153 153 0 153 153 0 153 
153 0 153 153 0 153 153 0 153 
153 0 153 153 0 153 153 0 153 
153 0 153 153 0 153 153 0 153 
153 0 153 153 0 153 153 0 153 
153 0 153 153 0 153 153 0 153 
153 0 153 153 0 153 153 0 153 
153 0 153 153 0 153 153 0 153 
153 0 153 153 0 153 153 0 153 
153 0 153 153 0 153 153 0 153 
153 0 153 153 0 153 153 0 153 
153 0 153 153 0 153 153 0 153 
153 0 153 153 0 153 153 0 153 
153 0 153 153 0 153 153 0 153 
153 0 153 153 0 153 153 0 153 
153 0 153 153 0 153 153 0 153 
153 0 153 153 0 153 153 0 153 
153 0 153 153 0 153 153 0 153 
153 0 153 153 0 153 153 0 153 
153 0 153 153 0 153 153 0 153 
153 0 153 153 0 153 153 0 153 
153 0 153 153 0 153 153 0 153 
153 0 153 153 0 153 153 0 153 
153 0 153 153 0 153 153 0 153 
153 0 153 153 0 153 153 0 153 
153 0 153 153 0 153 153 0 153 
153 0 153 153 0 153 153 0 153 
153 0 153 153 0 153 153 0 153 
153 0 153 153 0 153 153 0 153 
153 0 153 153 0 153 153 0 153 
153 0 153 153 0 153 153 0 153 
153 0 153 153 0 153 153 0 153 
153 0 153 153 0 153 153 0 153 
153 0 153 153 0 153 153 0 153 
153 0 153 153 0 153 153 0 153 
153 0 153 153 0 153 153 0 153 
153 0 153 153 0 153 153 0 153 
153 0 153 153 0 153 153 0 153 
153 0 153 153 0 153 153 0 153 
153 0 153 153 0 153 153 0 153 
153 0 153 153 0 153 153 0 153 
153 0 153 153 0 153 153 0 153 
153 0 153 153 0 153 153 0 153 
153 0 153 153 0 153 153 0 153 
153 0 153 153 0 153 153 0 153 
153 0 153 153 0 153 153 0 153 
153 0 153 153 0 153 153 0 153 
153 0 153 153 0 153 153 0 153 
153 0 153 153 0 153 153 0 153 
153 0 153 153 0 153 153 0 153 
153 0 153 153 0 153 153 0 153 
153 0 153 153 0 153 153 0 153 
153 0 153 153 0 153 153 0 153 
153 0 153 153 0 153 153 0 153 
153 0 153 153 0 153 153 0 153 
153 0 153 153 0 153 153 0 153 
153 0 153 153 0 153 153 0 153 
153 0 153 153 0 153 153 0 153 
153 0 153 153 0 153 153 0 153 
153 0 153 153 0 153 153 0 153 
153 0 153 153 0 153 153 0 153 
153 0 153 153 0 153 153 0 153 
153 0 153 153 0 153 153 0 153 
153 0 153 153 0 153 153 0 153 
153 0 153 153 0 153 153 0 153 
153 0 153 153 0 153 153 0 153 
153 0 153 153 0 153 153 0 153 
153 0 153 153 0 153 153 0 153 
153 0 153 153 0 153 153 0 153 
153 0 153 153 0 153 153 0 153 
153 0 153 153 0 153 153 0 153 
153 0 153 153 0 153 153 0 153 
153 0 153 153 0 153 153 0 153 
153 0 153 153 0 153 153 0 153 
153 0 153 153 0 153 153 0 153 
153 0 153 153 0 153 153 0 153 
153 0 153 153 0 153 153 0 153 
153 0 153 153 0 153 153 0 153 
153 0 153 153 0 153 153 0 153 
153 0 153 153 0 153 153 0 153 
153 0 153 153 0 153 153 0 153 
153 0 153 153 0 153 153 0 153 
153 0 153 153 0 153 153 0 153 
153 0 153 153 0 153 153 0 153 
153 0 153 153 0 153 153 0 153 
153 0 153 153 0 153 153 0 153 
153 0 153 153 0 153 153 0 153 
153 0 153 153 0 153 153 0 153 
153 0 153 153 0 153 153 0 153 
153 0 153 153 0 153 153 0 153 
153 0 153 153 0 153 153 0 153 
153 0 153 153 0 153 153 0 153 
153 0 153 153 0 153 153 0 153 
153 0 153 153 0 153 153 0 153 
153 0 153 153 0 153 153 0 153 
153 0 153 153 0 153 153 0 153 
153 0 153 153 0 153 153 0 153 
153 0 153 153 0 153 153 0 153 
153 0 153 153 0 153 153 0 153 
153 0 153 153 0 153 153 0 153 
153 0 153 153 0 153 153 0 153 
153 0 153 153 0 153 153 0 153 
153 0 153 153 0 153 153 0 153 
153 0 153 153 0 153 153 0 153 
153 0 153 153 0 153 153 0 153 
153 0 153 153 0 153 153 0 153 
153 0 153 153 0 153 153 0 153 
153 0 153 153 0 153 153 0 153 
153 0 153 153 0 153 153 0 153 
153 0 153 153 0 153 153 0 153 
153 0 153 153 0 153 153 0 153 
153 0 153 153 0 153 153 0 153 
153 0 153 153 0 153 153 0 153 
153 0 153 153 0 153 153 0 153 
153 0 153 153 0 153 153 0 153 
153 0 153 153 0 153 153 0 153 
153 0 153 153 0 153 153 0 153 
153 0 153 153 0 153 153 0 153 
153 0 153 153 0 153 153 0 153 
153 0 153 153 0 153 153 0 153 
153 0 153 153 0 153 153 0 153 
153 0 153 153 0 153 153 0 153 
153 0 153 153 0 153 153 0 153 
153 0 153 153 0 153 153 0 153 
153 0 153 153 0 153 153 0 153 
153 0 153 153 0 153 153 0 153 
153 0 153 153 0 153 153 0 153 
153 0 153 153 0 153 153 0 153 
153 0 153 153 0 153 153 0 153 
153 0 153 153 0 153 153 0 153 
153 0 153 153 0 153 153 0 153 
153 0 153 153 0 153 153 0 153 
153 0 153 153 0 153 153 0 153 
153 0 153 153 0 153 153 0 153 
153 0 153 153 0 153 153 0 153 
153 0 153 153 0 153 153 0 153 
153 0 153 153 0 153 153 0 153 
153 0 153 153 0 153 153 0 153 
153 0 153 153 0 153 153 0 153 
153 0 153 153 0 153 153 0 153 
153 0 153 153 0 153 153 0 153 
153 0 153 153 0 153 153 0 153 
153 0 153 153 0 153 153 0 153 
153 0 153 153 0 153 153 0 153 
153 0 153 153 0 153 153 0 153 
153 0 153 153 0 153 153 0 153 
153 0 153 153 0 153 153 0 153 
153 0 153 153 0 153 153 0 153 
153 0 153 153 0 153 153 0 153 
153 0 153 153 0 153 153 0 153 
153 0 153 153 0 153 153 0 153 
153 0 153 153 0 153 153 0 153 
153 0 153 153 0 153 153 0 153 
153 0 153 153 0 153 153 0 153 
153 0 153 153 0 153 153 0 153 
153 0 153 153 0 153 153 0 153 
153 0 153 153 0 153 153 0 153 
153 0 153 153 0 153 153 0 153 
153 0 153 153 0 153 153 0 153 
153 0 153 153 0 153 153 0 153 
153 0 153 153 0 153 153 0 153 
153 0 153 153 0 153 153 0 153 
153 0 153 153 0 153 153 0 153 
153 0 153 153 0 153 153 0 153 
153 0 153 153 0 153 153 0 153 
153 0 153 153 0 153 153 0 153 
153 0 153 153 0 153 153 0 153 
153 0 153 153 0 153 153 0 153 
153 0 153 153 0 153 153 0 153 
153 0 153 153 0 153 153 0 153 
153 0 153 153 0 153 153 0 153 
153 0 153 153 0 153 153 0 153 
153 0 153 153 0 153 153 0 153 
153 0 153 153 0 153 153 0 153 
153 0 153 153 0 153 153 0 153 
153 0 153 153 0 153 153 0 153 
153 0 153 153 0 153 153 0 153 
153 0 153 153 0 153 153 0 153 
153 0 153 153 0 153 153 0 153 