# vtk DataFile Version 3.0
vtk output
ASCII
DATASET POLYDATA
POINTS 1700 float
1124 360.5 0 1124.22 360.493 0 1124.44 360.472 0 
1124.66 360.438 0 1124.87 360.39 0 1125.08 360.329 0 
1125.29 360.254 0 1125.49 360.167 0 1125.69 360.067 0 
1125.88 359.955 0 1126.06 359.832 0 1126.23 359.697 0 
1126.4 359.551 0 1126.55 359.396 0 1126.7 359.231 0 
1126.83 359.057 0 1126.96 358.875 0 1127.07 358.686 0 
1127.17 358.49 0 1127.25 358.288 0 1127.33 358.082 0 
1127.39 357.87 0 1127.44 357.656 0 1127.47 357.439 0 
1127.49 357.22 0 1127.5 357 0 1127.49 356.78 0 
1127.47 356.561 0 1127.44 356.344 0 1127.39 356.13 0 
1127.33 355.918 0 1127.25 355.712 0 1127.17 355.51 0 
1127.07 355.314 0 1126.96 355.125 0 1126.83 354.943 0 
1126.7 354.769 0 1126.55 354.604 0 1126.4 354.449 0 
1126.23 354.303 0 1126.06 354.168 0 1125.88 354.045 0 
1125.69 353.933 0 1125.49 353.833 0 1125.29 353.746 0 
1125.08 353.671 0 1124.87 353.61 0 1124.66 353.562 0 
1124.44 353.528 0 1124.22 353.507 0 1124 353.5 0 
1123.78 353.507 0 1123.56 353.528 0 1123.34 353.562 0 
1123.13 353.61 0 1122.92 353.671 0 1122.71 353.746 0 
1122.51 353.833 0 1122.31 353.933 0 1122.12 354.045 0 
1121.94 354.168 0 1121.77 354.303 0 1121.6 354.449 0 
1121.45 354.604 0 1121.3 354.769 0 1121.17 354.943 0 
1121.04 355.125 0 1120.93 355.314 0 1120.83 355.51 0 
1120.75 355.712 0 1120.67 355.918 0 1120.61 356.13 0 
1120.56 356.344 0 1120.53 356.561 0 1120.51 356.78 0 
1120.5 357 0 1120.51 357.22 0 1120.53 357.439 0 
1120.56 357.656 0 1120.61 357.87 0 1120.67 358.082 0 
1120.75 358.288 0 1120.83 358.49 0 1120.93 358.686 0 
1121.04 358.875 0 1121.17 359.057 0 1121.3 359.231 0 
1121.45 359.396 0 1121.6 359.551 0 1121.77 359.697 0 
1121.94 359.832 0 1122.12 359.955 0 1122.31 360.067 0 
1122.51 360.167 0 1122.71 360.254 0 1122.92 360.329 0 
1123.13 360.39 0 1123.34 360.438 0 1123.56 360.472 0 
1123.78 360.493 0 1082 350.5 0 1082.22 350.493 0 
1082.44 350.472 0 1082.66 350.438 0 1082.87 350.39 0 
1083.08 350.329 0 1083.29 350.254 0 1083.49 350.167 0 
1083.69 350.067 0 1083.88 349.955 0 1084.06 349.832 0 
1084.23 349.697 0 1084.4 349.551 0 1084.55 349.396 0 
1084.7 349.231 0 1084.83 349.057 0 1084.96 348.875 0 
1085.07 348.686 0 1085.17 348.49 0 1085.25 348.288 0 
1085.33 348.082 0 1085.39 347.87 0 1085.44 347.656 0 
1085.47 347.439 0 1085.49 347.22 0 1085.5 347 0 
1085.49 346.78 0 1085.47 346.561 0 1085.44 346.344 0 
1085.39 346.13 0 1085.33 345.918 0 1085.25 345.712 0 
1085.17 345.51 0 1085.07 345.314 0 1084.96 345.125 0 
1084.83 344.943 0 1084.7 344.769 0 1084.55 344.604 0 
1084.4 344.449 0 1084.23 344.303 0 1084.06 344.168 0 
1083.88 344.045 0 1083.69 343.933 0 1083.49 343.833 0 
1083.29 343.746 0 1083.08 343.671 0 1082.87 343.61 0 
1082.66 343.562 0 1082.44 343.528 0 1082.22 343.507 0 
1082 343.5 0 1081.78 343.507 0 1081.56 343.528 0 
1081.34 343.562 0 1081.13 343.61 0 1080.92 343.671 0 
1080.71 343.746 0 1080.51 343.833 0 1080.31 343.933 0 
1080.12 344.045 0 1079.94 344.168 0 1079.77 344.303 0 
1079.6 344.449 0 1079.45 344.604 0 1079.3 344.769 0 
1079.17 344.943 0 1079.04 345.125 0 1078.93 345.314 0 
1078.83 345.51 0 1078.75 345.712 0 1078.67 345.918 0 
1078.61 346.13 0 1078.56 346.344 0 1078.53 346.561 0 
1078.51 346.78 0 1078.5 347 0 1078.51 347.22 0 
1078.53 347.439 0 1078.56 347.656 0 1078.61 347.87 0 
1078.67 348.082 0 1078.75 348.288 0 1078.83 348.49 0 
1078.93 348.686 0 1079.04 348.875 0 1079.17 349.057 0 
1079.3 349.231 0 1079.45 349.396 0 1079.6 349.551 0 
1079.77 349.697 0 1079.94 349.832 0 1080.12 349.955 0 
1080.31 350.067 0 1080.51 350.167 0 1080.71 350.254 0 
1080.92 350.329 0 1081.13 350.39 0 1081.34 350.438 0 
1081.56 350.472 0 1081.78 350.493 0 180 415.5 0 
180.22 415.493 0 180.439 415.472 0 180.656 415.438 0 
180.87 415.39 0 181.082 415.329 0 181.288 415.254 0 
181.49 415.167 0 181.686 415.067 0 181.875 414.955 0 
182.057 414.832 0 182.231 414.697 0 182.396 414.551 0 
182.551 414.396 0 182.697 414.231 0 182.832 414.057 0 
182.955 413.875 0 183.067 413.686 0 183.167 413.49 0 
183.254 413.288 0 183.329 413.082 0 183.39 412.87 0 
183.438 412.656 0 183.472 412.439 0 183.493 412.22 0 
183.5 412 0 183.493 411.78 0 183.472 411.561 0 
183.438 411.344 0 183.39 411.13 0 183.329 410.918 0 
183.254 410.712 0 183.167 410.51 0 183.067 410.314 0 
182.955 410.125 0 182.832 409.943 0 182.697 409.769 0 
182.551 409.604 0 182.396 409.449 0 182.231 409.303 0 
182.057 409.168 0 181.875 409.045 0 181.686 408.933 0 
181.49 408.833 0 181.288 408.746 0 181.082 408.671 0 
180.87 408.61 0 180.656 408.562 0 180.439 408.528 0 
180.22 408.507 0 180 408.5 0 179.78 408.507 0 
179.561 408.528 0 179.344 408.562 0 179.13 408.61 0 
178.918 408.671 0 178.712 408.746 0 178.51 408.833 0 
178.314 408.933 0 178.125 409.045 0 177.943 409.168 0 
177.769 409.303 0 177.604 409.449 0 177.449 409.604 0 
177.303 409.769 0 177.168 409.943 0 177.045 410.125 0 
176.933 410.314 0 176.833 410.51 0 176.746 410.712 0 
176.671 410.918 0 176.61 411.13 0 176.562 411.344 0 
176.528 411.561 0 176.507 411.78 0 176.5 412 0 
176.507 412.22 0 176.528 412.439 0 176.562 412.656 0 
176.61 412.87 0 176.671 413.082 0 176.746 413.288 0 
176.833 413.49 0 176.933 413.686 0 177.045 413.875 0 
177.168 414.057 0 177.303 414.231 0 177.449 414.396 0 
177.604 414.551 0 177.769 414.697 0 177.943 414.832 0 
178.125 414.955 0 178.314 415.067 0 178.51 415.167 0 
178.712 415.254 0 178.918 415.329 0 179.13 415.39 0 
179.344 415.438 0 179.561 415.472 0 179.78 415.493 0 
372 249.5 0 372.22 249.493 0 372.439 249.472 0 
372.656 249.438 0 372.87 249.39 0 373.082 249.329 0 
373.288 249.254 0 373.49 249.167 0 373.686 249.067 0 
373.875 248.955 0 374.057 248.832 0 374.231 248.697 0 
374.396 248.551 0 374.551 248.396 0 374.697 248.231 0 
374.832 248.057 0 374.955 247.875 0 375.067 247.686 0 
375.167 247.49 0 375.254 247.288 0 375.329 247.082 0 
375.39 246.87 0 375.438 246.656 0 375.472 246.439 0 
375.493 246.22 0 375.5 246 0 375.493 245.78 0 
375.472 245.561 0 375.438 245.344 0 375.39 245.13 0 
375.329 244.918 0 375.254 244.712 0 375.167 244.51 0 
375.067 244.314 0 374.955 244.125 0 374.832 243.943 0 
374.697 243.769 0 374.551 243.604 0 374.396 243.449 0 
374.231 243.303 0 374.057 243.168 0 373.875 243.045 0 
373.686 242.933 0 373.49 242.833 0 373.288 242.746 0 
373.082 242.671 0 372.87 242.61 0 372.656 242.562 0 
372.439 242.528 0 372.22 242.507 0 372 242.5 0 
371.78 242.507 0 371.561 242.528 0 371.344 242.562 0 
371.13 242.61 0 370.918 242.671 0 370.712 242.746 0 
370.51 242.833 0 370.314 242.933 0 370.125 243.045 0 
369.943 243.168 0 369.769 243.303 0 369.604 243.449 0 
369.449 243.604 0 369.303 243.769 0 369.168 243.943 0 
369.045 244.125 0 368.933 244.314 0 368.833 244.51 0 
368.746 244.712 0 368.671 244.918 0 368.61 245.13 0 
368.562 245.344 0 368.528 245.561 0 368.507 245.78 0 
368.5 246 0 368.507 246.22 0 368.528 246.439 0 
368.562 246.656 0 368.61 246.87 0 368.671 247.082 0 
368.746 247.288 0 368.833 247.49 0 368.933 247.686 0 
369.045 247.875 0 369.168 248.057 0 369.303 248.231 0 
369.449 248.396 0 369.604 248.551 0 369.769 248.697 0 
369.943 248.832 0 370.125 248.955 0 370.314 249.067 0 
370.51 249.167 0 370.712 249.254 0 370.918 249.329 0 
371.13 249.39 0 371.344 249.438 0 371.561 249.472 0 
371.78 249.493 0 314 457.5 0 314.22 457.493 0 
314.439 457.472 0 314.656 457.438 0 314.87 457.39 0 
315.082 457.329 0 315.288 457.254 0 315.49 457.167 0 
315.686 457.067 0 315.875 456.955 0 316.057 456.832 0 
316.231 456.697 0 316.396 456.551 0 316.551 456.396 0 
316.697 456.231 0 316.832 456.057 0 316.955 455.875 0 
317.067 455.686 0 317.167 455.49 0 317.254 455.288 0 
317.329 455.082 0 317.39 454.87 0 317.438 454.656 0 
317.472 454.439 0 317.493 454.22 0 317.5 454 0 
317.493 453.78 0 317.472 453.561 0 317.438 453.344 0 
317.39 453.13 0 317.329 452.918 0 317.254 452.712 0 
317.167 452.51 0 317.067 452.314 0 316.955 452.125 0 
316.832 451.943 0 316.697 451.769 0 316.551 451.604 0 
316.396 451.449 0 316.231 451.303 0 316.057 451.168 0 
315.875 451.045 0 315.686 450.933 0 315.49 450.833 0 
315.288 450.746 0 315.082 450.671 0 314.87 450.61 0 
314.656 450.562 0 314.439 450.528 0 314.22 450.507 0 
314 450.5 0 313.78 450.507 0 313.561 450.528 0 
313.344 450.562 0 313.13 450.61 0 312.918 450.671 0 
312.712 450.746 0 312.51 450.833 0 312.314 450.933 0 
312.125 451.045 0 311.943 451.168 0 311.769 451.303 0 
311.604 451.449 0 311.449 451.604 0 311.303 451.769 0 
311.168 451.943 0 311.045 452.125 0 310.933 452.314 0 
310.833 452.51 0 310.746 452.712 0 310.671 452.918 0 
310.61 453.13 0 310.562 453.344 0 310.528 453.561 0 
310.507 453.78 0 310.5 454 0 310.507 454.22 0 
310.528 454.439 0 310.562 454.656 0 310.61 454.87 0 
310.671 455.082 0 310.746 455.288 0 310.833 455.49 0 
310.933 455.686 0 311.045 455.875 0 311.168 456.057 0 
311.303 456.231 0 311.449 456.396 0 311.604 456.551 0 
311.769 456.697 0 311.943 456.832 0 312.125 456.955 0 
312.314 457.067 0 312.51 457.167 0 312.712 457.254 0 
312.918 457.329 0 313.13 457.39 0 313.344 457.438 0 
313.561 457.472 0 313.78 457.493 0 551 167.5 0 
551.22 167.493 0 551.439 167.472 0 551.656 167.438 0 
551.87 167.39 0 552.082 167.329 0 552.288 167.254 0 
552.49 167.167 0 552.686 167.067 0 552.875 166.955 0 
553.057 166.832 0 553.231 166.697 0 553.396 166.551 0 
553.551 166.396 0 553.697 166.231 0 553.832 166.057 0 
553.955 165.875 0 554.067 165.686 0 554.167 165.49 0 
554.254 165.288 0 554.329 165.082 0 554.39 164.87 0 
554.438 164.656 0 554.472 164.439 0 554.493 164.22 0 
554.5 164 0 554.493 163.78 0 554.472 163.561 0 
554.438 163.344 0 554.39 163.13 0 554.329 162.918 0 
554.254 162.712 0 554.167 162.51 0 554.067 162.314 0 
553.955 162.125 0 553.832 161.943 0 553.697 161.769 0 
553.551 161.604 0 553.396 161.449 0 553.231 161.303 0 
553.057 161.168 0 552.875 161.045 0 552.686 160.933 0 
552.49 160.833 0 552.288 160.746 0 552.082 160.671 0 
551.87 160.61 0 551.656 160.562 0 551.439 160.528 0 
551.22 160.507 0 551 160.5 0 550.78 160.507 0 
550.561 160.528 0 550.344 160.562 0 550.13 160.61 0 
[...]
POINT_DATA 1700
SCALARS scales float
LOOKUP_TABLE default
7 7 7 7 7 7 7 7 7 
7 7 7 7 7 7 7 7 7 
7 7 7 7 7 7 7 7 7 
7 7 7 7 7 7 7 7 7 
7 7 7 7 7 7 7 7 7 
7 7 7 7 7 7 7 7 7 
7 7 7 7 7 7 7 7 7 
7 7 7 7 7 7 7 7 7 
7 7 7 7 7 7 7 7 7 
7 7 7 7 7 7 7 7 7 
7 7 7 7 7 7 7 7 7 
7 7 7 7 7 7 7 7 7 
7 7 7 7 7 7 7 7 7 
7 7 7 7 7 7 7 7 7 
7 7 7 7 7 7 7 7 7 
7 7 7 7 7 7 7 7 7 
7 7 7 7 7 7 7 7 7 
7 7 7 7 7 7 7 7 7 
7 7 7 7 7 7 7 7 7 
7 7 7 7 7 7 7 7 7 
7 7 7 7 7 7 7 7 7 
7 7 7 7 7 7 7 7 7 
7 7 7 7 7 7 7 7 7 
7 7 7 7 7 7 7 7 7 
7 7 7 7 7 7 7 7 7 
7 7 7 7 7 7 7 7 7 
7 7 7 7 7 7 7 7 7 
7 7 7 7 7 7 7 7 7 
7 7 7 7 7 7 7 7 7 
7 7 7 7 7 7 7 7 7 
7 7 7 7 7 7 7 7 7 
7 7 7 7 7 7 7 7 7 
7 7 7 7 7 7 7 7 7 
7 7 7 7 7 7 7 7 7 
7 7 7 7 7 7 7 7 7 
7 7 7 7 7 7 7 7 7 
7 7 7 7 7 7 7 7 7 
7 7 7 7 7 7 7 7 7 
7 7 7 7 7 7 7 7 7 
7 7 7 7 7 7 7 7 7 
7 7 7 7 7 7 7 7 7 
7 7 7 7 7 7 7 7 7 
7 7 7 7 7 7 7 7 7 
7 7 7 7 7 7 7 7 7 
7 7 7 7 7 7 7 7 7 
7 7 7 7 7 7 7 7 7 
7 7 7 7 7 7 7 7 7 
7 7 7 7 7 7 7 7 7 
7 7 7 7 7 7 7 7 7 
7 7 7 7 7 7 7 7 7 
7 7 7 7 7 7 7 7 7 
7 7 7 7 7 7 7 7 7 
7 7 7 7 7 7 7 7 7 
7 7 7 7 7 7 7 7 7 
7 7 7 7 7 7 7 7 7 
7 7 7 7 7 7 7 7 7 
7 7 7 7 7 7 7 7 7 
7 7 7 7 7 7 7 7 7 
7 7 7 7 7 7 7 7 7 
7 7 7 7 7 7 7 7 7 
7 7 7 7 7 7 7 7 7 
7 7 7 7 7 7 7 7 7 
7 7 7 7 7 7 7 7 7 
7 7 7 7 7 7 7 7 7 
7 7 7 7 7 7 7 7 7 
7 7 7 7 7 7 7 7 7 
7 7 7 7 7 7 7 7 7 
7 7 7 7 7 7 7 7 7 
7 7 7 7 7 7 7 7 7 
7 7 7 7 7 7 7 7 7 
7 7 7 7 7 7 7 7 7 
7 7 7 7 7 7 7 7 7 
7 7 7 7 7 7 7 7 7 
7 7 7 7 7 7 7 7 7 
7 7 7 7 7 7 7 7 7 
7 7 7 7 7 7 7 7 7 
7 7 7 7 7 7 7 7 7 
7 7 7 7 7 7 7 7 7 
7 7 7 7 7 7 7 7 7 
7 7 7 7 7 7 7 7 7 
7 7 7 7 7 7 7 7 7 
7 7 7 7 7 7 7 7 7 
7 7 7 7 7 7 7 7 7 
7 7 7 7 7 7 7 7 7 
7 7 7 7 7 7 7 7 7 
7 7 7 7 7 7 7 7 7 
7 7 7 7 7 7 7 7 7 
7 7 7 7 7 7 7 7 7 
7 7 7 7 7 7 7 7 7 
7 7 7 7 7 7 7 7 7 
7 7 7 7 7 7 7 7 7 
7 7 7 7 7 7 7 7 7 
7 7 7 7 7 7 7 7 7 
7 7 7 7 7 7 7 7 7 
7 7 7 7 7 7 7 7 7 
7 7 7 7 7 7 7 7 7 
7 7 7 7 7 7 7 7 7 
7 7 7 7 7 7 7 7 7 
7 7 7 7 7 7 7 7 7 
7 7 7 7 7 7 7 7 7 
7 7 7 7 7 7 7 7 7 
7 7 7 7 7 7 7 7 7 
7 7 7 7 7 7 7 7 7 
7 7 7 7 7 7 7 7 7 
7 7 7 7 7 7 7 7 7 
7 7 7 7 7 7 7 7 7 
7 7 7 7 7 7 7 7 7 
7 7 7 7 7 7 7 7 7 
7 7 7 7 7 7 7 7 7 
7 7 7 7 7 7 7 7 7 
7 7 7 7 7 7 7 7 7 
7 7 7 7 7 7 7 7 7 
7 7 7 7 7 7 7 7 7 
7 7 7 7 7 7 7 7 7 
7 7 7 7 7 7 7 7 7 
7 7 7 7 7 7 7 7 7 
7 7 7 7 7 7 7 7 7 
7 7 7 7 7 7 7 7 7 
7 7 7 7 7 7 7 7 7 
7 7 7 7 7 7 7 7 7 
7 7 7 7 7 7 7 7 7 
7 7 7 7 7 7 7 7 7 
7 7 7 7 7 7 7 7 7 
7 7 7 7 7 7 7 7 7 
7 7 7 7 7 7 7 7 7 
7 7 7 7 7 7 7 7 7 
7 7 7 7 7 7 7 7 7 
7 7 7 7 7 7 7 7 7 
7 7 7 7 7 7 7 7 7 
7 7 7 7 7 7 7 7 7 
7 7 7 7 7 7 7 7 7 
7 7 7 7 7 7 7 7 7 
7 7 7 7 7 7 7 7 7 
7 7 7 7 7 7 7 7 7 
7 7 7 7 7 7 7 7 7 
7 7 7 7 7 7 7 7 7 
7 7 7 7 7 7 7 7 7 
7 7 7 7 7 7 7 7 7 
7 7 7 7 7 7 7 7 7 
7 7 7 7 7 7 7 7 7 
7 7 7 7 7 7 7 7 7 
7 7 7 7 7 7 7 7 7 
7 7 7 7 7 7 7 7 7 
7 7 7 7 7 7 7 7 7 
7 7 7 7 7 7 7 7 7 
7 7 7 7 7 7 7 7 7 
7 7 7 7 7 7 7 7 7 
7 7 7 7 7 7 7 7 7 
7 7 7 7 7 7 7 7 7 
7 7 7 7 7 7 7 7 7 
7 7 7 7 7 7 7 7 7 
7 7 7 7 7 7 7 7 7 
7 7 7 7 7 7 7 7 7 
7 7 7 7 7 7 7 7 7 
7 7 7 7 7 7 7 7 7 
7 7 7 7 7 7 7 7 7 
7 7 7 7 7 7 7 7 7 
7 7 7 7 7 7 7 7 7 
7 7 7 7 7 7 7 7 7 
7 7 7 7 7 7 7 7 7 
7 7 7 7 7 7 7 7 7 
7 7 7 7 7 7 7 7 7 
7 7 7 7 7 7 7 7 7 
7 7 7 7 7 7 7 7 7 
7 7 7 7 7 7 7 7 7 
7 7 7 7 7 7 7 7 7 
7 7 7 7 7 7 7 7 7 
7 7 7 7 7 7 7 7 7 
7 7 7 7 7 7 7 7 7 
7 7 7 7 7 7 7 7 7 
7 7 7 7 7 7 7 7 7 
7 7 7 7 7 7 7 7 7 
7 7 7 7 7 7 7 7 7 
7 7 7 7 7 7 7 7 7 
7 7 7 7 7 7 7 7 7 
7 7 7 7 7 7 7 7 7 
7 7 7 7 7 7 7 7 7 
7 7 7 7 7 7 7 7 7 
7 7 7 7 7 7 7 7 7 
7 7 7 7 7 7 7 7 7 
7 7 7 7 7 7 7 7 7 
7 7 7 7 7 7 7 7 7 
7 7 7 7 7 7 7 7 7 
7 7 7 7 7 7 7 7 7 
7 7 7 7 7 7 7 7 7 
7 7 7 7 7 7 7 7 7 
7 7 7 7 7 7 7 7 7 
7 7 7 7 7 7 7 7 7 
7 7 7 7 7 7 7 7 
FIELD FieldData 1
Colors 3 1700 unsigned_char
153 0 153 153 0 153 153 0 153 
153 0 153 153 0 153 153 0 153 
153 0 153 153 0 153 153 0 153 
153 0 153 153 0 153 153 0 153 
153 0 153 153 0 153 153 0 153 
153 0 153 153 0 153 153 0 153 
153 0 153 153 0 153 153 0 153 
153 0 153 153 0 153 153 0 153 
153 0 153 153 0 153 153 0 153 
153 0 153 153 0 153 153 0 153 
153 0 153 153 0 153 153 0 153 
153 0 153 153 0 153 153 0 153 
153 0 153 153 0 153 153 0 153 
153 0 153 153 0 153 153 0 153 
153 0 153 153 0 153 153 0 153 
153 0 153 153 0 153 153 0 153 
153 0 153 153 0 153 153 0 153 
153 0 153 153 0 153 153 0 153 
153 0 153 153 0 153 153 0 153 
153 0 153 153 0 153 153 0 153 
153 0 153 153 0 153 153 0 153 
153 0 153 153 0 153 153 0 153 
153 0 153 153 0 153 153 0 153 
153 0 153 153 0 153 153 0 153 
153 0 153 153 0 153 153 0 153 
153 0 153 153 0 153 153 0 153 
153 0 153 153 0 153 153 0 153 
153 0 153 153 0 153 153 0 153 
153 0 153 153 0 153 153 0 153 
153 0 153 153 0 153 153 0 153 
153 0 153 153 0 153 153 0 153 
153 0 153 153 0 153 153 0 153 
153 0 153 153 0 153 153 0 153 
153 0 153 153 0 153 153 0 153 
153 0 153 153 0 153 153 0 153 
153 0 153 153 0 153 153 0 153 
153 0 153 153 0 153 153 0 153 
153 0 153 153 0 153 153 0 153 
153 0 153 153 0 153 153 0 153 
153 0 153 153 0 153 153 0 153 
153 0 153 153 0 153 153 0 153 
153 0 153 153 0 153 153 0 153 
153 0 153 153 0 153 153 0 153 
153 0 153 153 0 153 153 0 153 
153 0 153 153 0 153 153 0 153 
153 0 153 153 0 153 153 0 153 
153 0 153 153 0 153 153 0 153 
153 0 153 153 0 153 153 0 153 
153 0 153 153 0 153 153 0 153 
153 0 153 153 0 153 153 0 153 
153 0 153 153 0 153 153 0 153 
153 0 153 153 0 153 153 0 153 
153 0 153 153 0 153 153 0 153 
153 0 153 153 0 153 153 0 153 
153 0 153 153 0 153 153 0 153 
153 0 153 153 0 153 153 0 153 
153 0 153 153 0 153 153 0 153 
153 0 153 153 0 153 153 0 153 
153 0 153 153 0 153 153 0 153 
153 0 153 153 0 153 153 0 153 
153 0 153 153 0 153 153 0 153 
153 0 153 153 0 153 153 0 153 
153 0 153 153 0 153 153 0 153 
153 0 153 153 0 153 153 0 153 
153 0 153 153 0 153 153 0 153 
153 0 153 153 0 153 153 0 153 
153 0 153 153 0 153 153 0 153 
153 0 153 153 0 153 153 0 153 
153 0 153 153 0 153 153 0 153 
153 0 153 153 0 153 153 0 153 
153 0 153 153 0 153 153 0 153 
153 0 153 153 0 153 153 0 153 
153 0 153 153 0 153 153 0 153 
153 0 153 153 0 153 153 0 153 
153 0 153 153 0 153 153 0 153 
153 0 153 153 0 153 153 0 153 
153 0 153 153 0 153 153 0 153 
153 0 153 153 0 153 153 0 153 
153 0 153 153 0 153 153 0 153 
153 0 153 153 0 153 153 0 153 
153 0 153 153 0 153 153 0 153 
153 0 153 153 0 153 153 0 153 
153 0 153 153 0 153 153 0 153 
153 0 153 153 0 153 153 0 153 
153 0 153 153 0 153 153 0 153 
153 0 153 153 0 153 153 0 153 
153 0 153 153 0 153 153 0 153 
153 0 153 153 0 153 153 0 153 
153 0 153 153 0 153 153 0 153 
153 0 153 153 0 153 153 0 153 
153 0 153 153 0 153 153 0 153 
153 0 153 153 0 153 153 0 153 
153 0 153 153 0 153 153 0 153 
153 0 153 153 0 153 153 0 153 
153 0 153 153 0 153 153 0 153 
153 0 153 153 0 153 153 0 153 
153 0 153 153 0 153 153 0 153 
153 0 153 153 0 153 153 0 153 
153 0 153 153 0 153 153 0 153 
153 0 153 153 0 153 153 0 153 
153 0 153 153 0 153 153 0 153 
153 0 153 153 0 153 153 0 153 
153 0 153 153 0 153 153 0 153 
153 0 153 153 0 153 153 0 153 
153 0 153 153 0 153 153 0 153 
153 0 153 153 0 153 153 0 153 
153 0 153 153 0 153 153 0 153 
153 0 153 153 0 153 153 0 153 
153 0 153 153 0 153 153 0 153 
153 0 153 153 0 153 153 0 153 
153 0 153 153 0 153 153 0 153 
153 0 153 153 0 153 153 0 153 
153 0 153 153 0 153 153 0 153 
153 0 153 153 0 153 153 0 153 
153 0 153 153 0 153 153 0 153 
153 0 153 153 0 153 153 0 153 
153 0 153 153 0 153 153 0 153 
153 0 153 153 0 153 153 0 153 
153 0 153 153 0 153 153 0 153 
153 0 153 153 0 153 153 0 153 
153 0 153 153 0 153 153 0 153 
153 0 153 153 0 153 153 0 153 
153 0 153 153 0 153 153 0 153 
153 0 153 153 0 153 153 0 153 
153 0 153 153 0 153 153 0 153 
153 0 153 153 0 153 153 0 153 
153 0 153 153 0 153 153 0 153 
153 0 153 153 0 153 153 0 153 
153 0 153 153 0 153 153 0 153 
153 0 153 153 0 153 153 0 153 
153 0 153 153 0 153 153 0 153 
153 0 153 153 0 153 153 0 153 
153 0 153 153 0 153 153 0 153 
153 0 153 153 0 153 153 0 153 
153 0 153 153 0 153 153 0 153 
153 0 153 153 0 153 153 0 153 
153 0 153 153 0 153 153 0 153 
153 0 153 153 0 153 153 0 153 
153 0 153 153 0 153 153 0 153 
153 0 153 153 0 153 153 0 153 
153 0 153 153 0 153 153 0 153 
153 0 153 153 0 153 153 0 153 
153 0 153 153 0 153 153 0 153 
153 0 153 153 0 153 153 0 153 
153 0 153 153 0 153 153 0 153 
153 0 153 153 0 153 153 0 153 
153 0 153 153 0 153 153 0 153 
153 0 153 153 0 153 153 0 153 
153 0 153 153 0 153 153 0 153 
153 0 153 153 0 153 153 0 153 
153 0 153 153 0 153 153 0 153 
153 0 153 153 0 153 153 0 153 
153 0 153 153 0 153 153 0 153 
153 0 153 153 0 153 153 0 153 
153 0 153 153 0 153 153 0 153 
153 0 153 153 0 153 153 0 153 
153 0 153 153 0 153 153 0 153 
153 0 153 153 0 153 153 0 153 
153 0 153 153 0 153 153 0 153 
153 0 153 153 0 153 153 0 153 
153 0 153 153 0 153 153 0 153 
153 0 153 153 0 153 153 0 153 
153 0 153 153 0 153 153 0 153 
153 0 153 153 0 153 153 0 153 
153 0 153 153 0 153 153 0 153 
153 0 153 153 0 153 153 0 153 
153 0 153 153 0 153 153 0 153 
153 0 153 153 0 153 153 0 153 
153 0 153 153 0 153 153 0 153 
153 0 153 153 0 153 153 0 153 
153 0 153 153 0 153 153 0 153 
153 0 153 153 0 153 153 0 153 
153 0 153 153 0 153 153 0 153 
153 0 153 153 0 153 153 0 153 
153 0 153 153 0 153 153 0 153 
153 0 153 153 0 153 153 0 153 
153 0 153 153 0 153 153 0 153 
153 0 153 153 0 153 153 0 153 
153 0 153 153 0 153 153 0 153 
153 0 153 153 0 153 153 0 153 
153 0 153 153 0 153 153 0 153 
153 0 153 153 0 153 153 0 153 
153 0 153 153 0 153 153 0 153 
153 0 153 153 0 153 153 0 153 
153 0 153 153 0 153 153 0 153 
153 0 153 153 0 153 153 0 153 
153 0 153 153 0 153 153 0 153 
153 0 153 153 0 153 153 0 153 
153 0 153 153 0 153 153 0 153 
153 0 153 153 0 153 153 0 153 
153 0 153 153 0 153 153 0 153 
153 0 153 153 0 153 153 0 153 
153 0 153 153 0 153 153 0 153 
153 0 153 153 0 153 153 0 153 
153 0 153 153 0 153 153 0 153 
153 0 153 153 0 153 153 0 153 
153 0 153 153 0 153 153 0 153 
153 0 153 153 0 153 153 0 153 
153 0 153 153 0 153 153 0 153 
153 0 153 153 0 153 153 0 153 
153 0 153 153 0 153 153 0 153 
153 0 153 153 0 153 153 0 153 
153 0 153 153 0 153 153 0 153 
153 0 153 153 0 153 153 0 153 
153 0 153 153 0 153 153 0 153 
153 0 153 153 0 153 153 0 153 
153 0 153 153 0 153 153 0 153 
153 0 153 153 0 153 153 0 153 
153 0 153 153 0 153 153 0 153 
153 0 153 153 0 153 153 0 153 
153 0 153 153 0 153 153 0 153 
153 0 153 153 0 153 153 0 153 
153 0 153 153 0 153 153 0 153 
153 0 153 153 0 153 153 0 153 
153 0 153 153 0 153 153 0 153 
153 0 153 153 0 153 153 0 153 
153 0 153 153 0 153 153 0 153 
153 0 153 153 0 153 153 0 153 
153 0 153 153 0 153 153 0 153 
153 0 153 153 0 153 153 0 153 
153 0 153 153 0 153 153 0 153 
153 0 153 153 0 153 153 0 153 
153 0 153 153 0 153 153 0 153 
153 0 153 153 0 153 153 0 153 
153 0 153 153 0 153 153 0 153 
153 0 153 153 0 153 153 0 153 
153 0 153 153 0 153 153 0 153 
153 0 153 153 0 153 153 0 153 
153 0 153 153 0 153 153 0 153 
153 0 153 153 0 153 153 0 153 
153 0 153 153 0 153 153 0 153 
153 0 153 153 0 153 153 0 153 
153 0 153 153 0 153 153 0 153 
153 0 153 153 0 153 153 0 153 
153 0 153 153 0 153 153 0 153 
153 0 153 153 0 153 153 0 153 
153 0 153 153 0 153 153 0 153 
153 0 153 153 0 153 153 0 153 
153 0 153 153 0 153 153 0 153 
153 0 153 153 0 153 153 0 153 
153 0 153 153 0 153 153 0 153 
153 0 153 153 0 153 153 0 153 
153 0 153 153 0 153 153 0 153 
153 0 153 153 0 153 153 0 153 
153 0 153 153 0 153 153 0 153 
153 0 153 153 0 153 153 0 153 
153 0 153 153 0 153 153 0 153 
153 0 153 153 0 153 153 0 153 
153 0 153 153 0 153 153 0 153 
153 0 153 153 0 153 153 0 153 
153 0 153 153 0 153 153 0 153 
153 0 153 153 0 153 153 0 153 
153 0 153 153 0 153 153 0 153 
153 0 153 153 0 153 153 0 153 
153 0 153 153 0 153 153 0 153 
153 0 153 153 0 153 153 0 153 
153 0 153 153 0 153 153 0 153 
153 0 153 153 0 153 153 0 153 
153 0 153 153 0 153 153 0 153 
153 0 153 153 0 153 153 0 153 
153 0 153 153 0 153 153 0 153 
153 0 153 153 0 153 153 0 153 
153 0 153 153 0 153 153 0 153 
153 0 153 153 0 153 153 0 153 
153 0 153 153 0 153 153 0 153 
153 0 153 153 0 153 153 0 153 
153 0 153 153 0 153 153 0 153 
153 0 153 153 0 153 153 0 153 
153 0 153 153 0 153 153 0 153 
153 0 153 153 0 153 153 0 153 
153 0 153 153 0 153 153 0 153 
153 0 153 153 0 153 153 0 153 
153 0 153 153 0 153 153 0 153 
153 0 153 153 0 153 153 0 153 
153 0 153 153 0 153 153 0 153 
153 0 153 153 0 153 153 0 153 
153 0 153 153 0 153 153 0 153 
153 0 153 153 0 153 153 0 153 
153 0 153 153 0 153 153 0 153 
153 0 153 153 0 153 153 0 153 
153 0 153 153 0 153 153 0 153 
153 0 153 153 0 153 153 0 153 
153 0 153 153 0 153 153 0 153 
153 0 153 153 0 153 153 0 153 
153 0 153 153 0 153 153 0 153 
153 0 153 153 0 153 153 0 153 
153 0 153 153 0 153 153 0 153 
153 0 153 153 0 153 153 0 153 
153 0 153 153 0 153 153 0 153 
153 0 153 153 0 153 153 0 153 
153 0 153 153 0 153 153 0 153 
153 0 153 153 0 153 153 0 153 
153 0 153 153 0 153 153 0 153 
153 0 153 153 0 153 153 0 153 
153 0 153 153 0 153 153 0 153 
153 0 153 153 0 153 153 0 153 
153 0 153 153 0 153 153 0 153 
153 0 153 153 0 153 153 0 153 
153 0 153 153 0 153 153 0 153 
153 0 153 153 0 153 153 0 153 
153 0 153 153 0 153 153 0 153 
153 0 153 153 0 153 153 0 153 
153 0 153 153 0 153 153 0 153 
153 0 153 153 0 153 153 0 153 
153 0 153 153 0 153 153 0 153 
153 0 153 153 0 153 153 0 153 
153 0 153 153 0 153 153 0 153 
153 0 153 153 0 153 153 0 153 
153 0 153 153 0 153 153 0 153 
153 0 153 153 0 153 153 0 153 
153 0 153 153 0 153 153 0 153 
153 0 153 153 0 153 153 0 153 
153 0 153 153 0 153 153 0 153 
153 0 153 153 0 153 153 0 153 
153 0 153 153 0 153 153 0 153 
153 0 153 153 0 153 153 0 153 
153 0 153 153 0 153 153 0 153 
153 0 153 153 0 153 153 0 153 
153 0 153 153 0 153 153 0 153 
153 0 153 153 0 153 153 0 153 
153 0 153 153 0 153 153 0 153 
153 0 153 153 0 153 153 0 153 
153 0 153 153 0 153 153 0 153 
153 0 153 153 0 153 153 0 153 
153 0 153 153 0 153 153 0 153 
153 0 153 153 0 153 153 0 153 
153 0 153 153 0 153 153 0 153 
153 0 153 153 0 153 153 0 153 
153 0 153 153 0 153 153 0 153 
153 0 153 153 0 153 153 0 153 
153 0 153 153 0 153 153 0 153 
153 0 153 153 0 153 153 0 153 
153 0 153 153 0 153 153 0 153 
153 0 153 153 0 153 153 0 153 
153 0 153 153 0 153 153 0 153 
153 0 153 153 0 153 153 0 153 
153 0 153 153 0 153 153 0 153 
153 0 153 153 0 153 153 0 153 
153 0 153 153 0 153 153 0 153 
153 0 153 153 0 153 153 0 153 
153 0 153 153 0 153 153 0 153 
153 0 153 153 0 153 153 0 153 
153 0 153 153 0 153 153 0 153 
153 0 153 153 0 153 153 0 153 
153 0 153 153 0 153 153 0 153 
153 0 153 153 0 153 153 0 153 
153 0 153 153 0 153 153 0 153 
153 0 153 153 0 153 153 0 153 
153 0 153 153 0 153 153 0 153 
153 0 153 153 0 153 153 0 153 
153 0 153 153 0 153 153 0 153 
153 0 153 153 0 153 153 0 153 
153 0 153 153 0 153 153 0 153 
153 0 153 153 0 153 153 0 153 
153 0 153 153 0 153 153 0 153 
153 0 153 153 0 153 153 0 153 
153 0 153 153 0 153 153 0 153 
153 0 153 153 0 153 153 0 153 
153 0 153 153 0 153 153 0 153 
153 0 153 153 0 153 153 0 153 
153 0 153 153 0 153 153 0 153 
153 0 153 153 0 153 153 0 153 
153 0 153 153 0 153 153 0 153 
153 0 153 153 0 153 153 0 153 
153 0 153 153 0 153 153 0 153 
153 0 153 153 0 153 153 0 153 
153 0 153 153 0 153 153 0 153 
153 0 153 153 0 153 153 0 153 
153 0 153 153 0 153 153 0 153 
153 0 153 153 0 153 153 0 153 
153 0 153 153 0 153 153 0 153 
153 0 153 153 0 153 153 0 153 
153 0 153 153 0 153 153 0 153 
153 0 153 153 0 153 153 0 153 
153 0 153 153 0 153 153 0 153 
153 0 153 153 0 153 153 0 153 
153 0 153 153 0 153 153 0 153 
153 0 153 153 0 153 153 0 153 
153 0 153 153 0 153 153 0 153 
153 0 153 153 0 153 153 0 153 
153 0 153 153 0 153 153 0 153 
153 0 153 153 0 153 153 0 153 
153 0 153 153 0 153 153 0 153 
153 0 153 153 0 153 153 0 153 
153 0 153 153 0 153 153 0 153 
153 0 153 153 0 153 153 0 153 
153 0 153 153 0 153 153 0 153 
153 0 153 153 0 153 153 0 153 
153 0 153 153 0 153 153 0 153 
153 0 153 153 0 153 153 0 153 
153 0 153 153 0 153 153 0 153 
153 0 153 153 0 153 153 0 153 
153 0 153 153 0 153 153 0 153 
153 0 153 153 0 153 153 0 153 
153 0 153 153 0 153 153 0 153 
153 0 153 153 0 153 153 0 153 
153 0 153 153 0 153 153 0 153 
153 0 153 153 0 153 153 0 153 
153 0 153 153 0 153 153 0 153 
153 0 153 153 0 153 153 0 153 
153 0 153 153 0 153 153 0 153 
153 0 153 153 0 153 153 0 153 
153 0 153 153 0 153 153 0 153 
153 0 153 153 0 153 153 0 153 
153 0 153 153 0 153 153 0 153 
153 0 153 153 0 153 153 0 153 
153 0 153 153 0 153 153 0 153 
153 0 153 153 0 153 153 0 153 
153 0 153 153 0 153 153 0 153 
153 0 153 153 0 153 153 0 153 
153 0 153 153 0 153 153 0 153 
153 0 153 153 0 153 153 0 153 
153 0 153 153 0 153 153 0 153 
153 0 153 153 0 153 153 0 153 
153 0 153 153 0 153 153 0 153 
153 0 153 153 0 153 153 0 153 
153 0 153 153 0 153 153 0 153 
153 0 153 153 0 153 153 0 153 
153 0 153 153 0 153 153 0 153 
153 0 153 153 0 153 153 0 153 
153 0 153 153 0 153 153 0 153 
153 0 153 153 0 153 153 0 153 
153 0 153 153 0 153 153 0 153 
153 0 153 153 0 153 153 0 153 
153 0 153 153 0 153 153 0 153 
153 0 153 153 0 153 153 0 153 
153 0 153 153 0 153 153 0 153 
153 0 153 153 0 153 153 0 153 
153 0 153 153 0 153 153 0 153 
153 0 153 153 0 153 153 0 153 
153 0 153 153 0 153 153 0 153 
153 0 153 153 0 153 153 0 153 
153 0 153 153 0 153 153 0 153 
153 0 153 153 0 153 153 0 153 
153 0 153 153 0 153 153 0 153 
153 0 153 153 0 153 153 0 153 
153 0 153 153 0 153 153 0 153 
153 0 153 153 0 153 153 0 153 
153 0 153 153 0 153 153 0 153 
153 0 153 153 0 153 153 0 153 
153 0 153 153 0 153 153 0 153 
153 0 153 153 0 153 153 0 153 
153 0 153 153 0 153 153 0 153 
153 0 153 153 0 153 153 0 153 
153 0 153 153 0 153 153 0 153 
153 0 153 153 0 153 153 0 153 
153 0 153 153 0 153 153 0 153 
153 0 153 153 0 153 153 0 153 
153 0 153 153 0 153 153 0 153 
153 0 153 153 0 153 153 0 153 
153 0 153 153 0 153 153 0 153 
153 0 153 153 0 153 153 0 153 
153 0 153 153 0 153 153 0 153 
153 0 153 153 0 153 153 0 153 
153 0 153 153 0 153 153 0 153 
153 0 153 153 0 153 153 0 153 
153 0 153 153 0 153 153 0 153 
153 0 153 153 0 153 153 0 153 
153 0 153 153 0 153 153 0 153 
153 0 153 153 0 153 153 0 153 
153 0 153 153 0 153 153 0 153 
153 0 153 153 0 153 153 0 153 
153 0 153 153 0 153 153 0 153 
153 0 153 153 0 153 153 0 153 
153 0 153 153 0 153 153 0 153 
153 0 153 153 0 153 153 0 153 
153 0 153 153 0 153 153 0 153 
153 0 153 153 0 153 153 0 153 
153 0 153 153 0 153 153 0 153 
153 0 153 153 0 153 153 0 153 
153 0 153 153 0 153 153 0 153 
153 0 153 153 0 153 153 0 153 
153 0 153 153 0 153 153 0 153 
153 0 153 153 0 153 153 0 153 
153 0 153 153 0 153 153 0 153 
153 0 153 153 0 153 153 0 153 
153 0 153 153 0 153 153 0 153 
153 0 153 153 0 153 153 0 153 
153 0 153 153 0 153 153 0 153 
153 0 153 153 0 153 153 0 153 
153 0 153 153 0 153 153 0 153 
153 0 153 153 0 153 153 0 153 
153 0 153 153 0 153 153 0 153 
153 0 153 153 0 153 153 0 153 
153 0 153 153 0 153 153 0 153 
153 0 153 153 0 153 153 0 153 
153 0 153 153 0 153 153 0 153 
153 0 153 153 0 153 153 0 153 
153 0 153 153 0 153 153 0 153 
153 0 153 153 0 153 153 0 153 
153 0 153 153 0 153 153 0 153 
153 0 153 153 0 153 153 0 153 
153 0 153 153 0 153 153 0 153 
153 0 153 153 0 153 153 0 153 
153 0 153 153 0 153 153 0 153 
153 0 153 153 0 153 153 0 153 
153 0 153 153 0 153 153 0 153 
153 0 153 153 0 153 153 0 153 
153 0 153 153 0 153 153 0 153 
153 0 153 153 0 153 153 0 153 
153 0 153 153 0 153 153 0 153 
153 0 153 153 0 153 153 0 153 
153 0 153 153 0 153 153 0 153 
153 0 153 153 0 153 153 0 153 
153 0 153 153 0 153 153 0 153 
153 0 153 153 0 153 153 0 153 
153 0 153 153 0 153 153 0 153 
153 0 153 153 0 153 153 0 153 
153 0 153 153 0 153 153 0 153 
153 0 153 153 0 153 153 0 153 
153 0 153 153 0 153 153 0 153 
153 0 153 153 0 153 153 0 153 
153 0 153 153 0 153 153 0 153 
153 0 153 153 0 153 153 0 153 
153 0 153 153 0 153 153 0 153 
153 0 153 153 0 153 153 0 153 
153 0 153 153 0 153 153 0 153 
153 0 153 153 0 153 153 0 153 
153 0 153 153 0 153 153 0 153 
153 0 153 153 0 153 153 0 153 
153 0 153 153 0 153 153 0 153 
153 0 153 153 0 153 153 0 153 
153 0 153 153 0 153 153 0 153 
153 0 153 153 0 153 153 0 153 
153 0 153 153 0 153 153 0 153 
153 0 153 153 0 153 153 0 153 