# vtk DataFile Version 3.0
vtk output
ASCII
DATASET POLYDATA
POINTS 1700 float
1124 358.5 0 1124.09 358.497 0 1124.19 358.488 0 
1124.28 358.473 0 1124.37 358.453 0 1124.46 358.427 0 
1124.55 358.395 0 1124.64 358.357 0 1124.72 358.314 0 
1124.8 358.266 0 1124.88 358.214 0 1124.96 358.156 0 
1125.03 358.093 0 1125.09 358.027 0 1125.16 357.956 0 
1125.21 357.882 0 1125.27 357.804 0 1125.31 357.723 0 
1125.36 357.639 0 1125.39 357.552 0 1125.43 357.464 0 
1125.45 357.373 0 1125.47 357.281 0 1125.49 357.188 0 
1125.5 357.094 0 1125.5 357 0 1125.5 356.906 0 
1125.49 356.812 0 1125.47 356.719 0 1125.45 356.627 0 
1125.43 356.536 0 1125.39 356.448 0 1125.36 356.361 0 
1125.31 356.277 0 1125.27 356.196 0 1125.21 356.118 0 
1125.16 356.044 0 1125.09 355.973 0 1125.03 355.907 0 
1124.96 355.844 0 1124.88 355.786 0 1124.8 355.734 0 
1124.72 355.686 0 1124.64 355.643 0 1124.55 355.605 0 
1124.46 355.573 0 1124.37 355.547 0 1124.28 355.527 0 
1124.19 355.512 0 1124.09 355.503 0 1124 355.5 0 
1123.91 355.503 0 1123.81 355.512 0 1123.72 355.527 0 
1123.63 355.547 0 1123.54 355.573 0 1123.45 355.605 0 
1123.36 355.643 0 1123.28 355.686 0 1123.2 355.734 0 
1123.12 355.786 0 1123.04 355.844 0 1122.97 355.907 0 
1122.91 355.973 0 1122.84 356.044 0 1122.79 356.118 0 
1122.73 356.196 0 1122.69 356.277 0 1122.64 356.361 0 
1122.61 356.448 0 1122.57 356.536 0 1122.55 356.627 0 
1122.53 356.719 0 1122.51 356.812 0 1122.5 356.906 0 
1122.5 357 0 1122.5 357.094 0 1122.51 357.188 0 
1122.53 357.281 0 1122.55 357.373 0 1122.57 357.464 0 
1122.61 357.552 0 1122.64 357.639 0 1122.69 357.723 0 
1122.73 357.804 0 1122.79 357.882 0 1122.84 357.956 0 
1122.91 358.027 0 1122.97 358.093 0 1123.04 358.156 0 
1123.12 358.214 0 1123.2 358.266 0 1123.28 358.314 0 
1123.36 358.357 0 1123.45 358.395 0 1123.54 358.427 0 
1123.63 358.453 0 1123.72 358.473 0 1123.81 358.488 0 
1123.91 358.497 0 1082 348.5 0 1082.09 348.497 0 
1082.19 348.488 0 1082.28 348.473 0 1082.37 348.453 0 
1082.46 348.427 0 1082.55 348.395 0 1082.64 348.357 0 
1082.72 348.314 0 1082.8 348.266 0 1082.88 348.214 0 
1082.96 348.156 0 1083.03 348.093 0 1083.09 348.027 0 
1083.16 347.956 0 1083.21 347.882 0 1083.27 347.804 0 
1083.31 347.723 0 1083.36 347.639 0 1083.39 347.552 0 
1083.43 347.464 0 1083.45 347.373 0 1083.47 347.281 0 
1083.49 347.188 0 1083.5 347.094 0 1083.5 347 0 
1083.5 346.906 0 1083.49 346.812 0 1083.47 346.719 0 
1083.45 346.627 0 1083.43 346.536 0 1083.39 346.448 0 
1083.36 346.361 0 1083.31 346.277 0 1083.27 346.196 0 
1083.21 346.118 0 1083.16 346.044 0 1083.09 345.973 0 
1083.03 345.907 0 1082.96 345.844 0 1082.88 345.786 0 
1082.8 345.734 0 1082.72 345.686 0 1082.64 345.643 0 
1082.55 345.605 0 1082.46 345.573 0 1082.37 345.547 0 
1082.28 345.527 0 1082.19 345.512 0 1082.09 345.503 0 
1082 345.5 0 1081.91 345.503 0 1081.81 345.512 0 
1081.72 345.527 0 1081.63 345.547 0 1081.54 345.573 0 
1081.45 345.605 0 1081.36 345.643 0 1081.28 345.686 0 
1081.2 345.734 0 1081.12 345.786 0 1081.04 345.844 0 
1080.97 345.907 0 1080.91 345.973 0 1080.84 346.044 0 
1080.79 346.118 0 1080.73 346.196 0 1080.69 346.277 0 
1080.64 346.361 0 1080.61 346.448 0 1080.57 346.536 0 
1080.55 346.627 0 1080.53 346.719 0 1080.51 346.812 0 
1080.5 346.906 0 1080.5 347 0 1080.5 347.094 0 
1080.51 347.188 0 1080.53 347.281 0 1080.55 347.373 0 
1080.57 347.464 0 1080.61 347.552 0 1080.64 347.639 0 
1080.69 347.723 0 1080.73 347.804 0 1080.79 347.882 0 
1080.84 347.956 0 1080.91 348.027 0 1080.97 348.093 0 
1081.04 348.156 0 1081.12 348.214 0 1081.2 348.266 0 
1081.28 348.314 0 1081.36 348.357 0 1081.45 348.395 0 
1081.54 348.427 0 1081.63 348.453 0 1081.72 348.473 0 
1081.81 348.488 0 1081.91 348.497 0 180 413.5 0 
180.094 413.497 0 180.188 413.488 0 180.281 413.473 0 
180.373 413.453 0 180.464 413.427 0 180.552 413.395 0 
180.639 413.357 0 180.723 413.314 0 180.804 413.266 0 
180.882 413.214 0 180.956 413.156 0 181.027 413.093 0 
181.093 413.027 0 181.156 412.956 0 181.214 412.882 0 
181.266 412.804 0 181.314 412.723 0 181.357 412.639 0 
181.395 412.552 0 181.427 412.464 0 181.453 412.373 0 
181.473 412.281 0 181.488 412.188 0 181.497 412.094 0 
181.5 412 0 181.497 411.906 0 181.488 411.812 0 
181.473 411.719 0 181.453 411.627 0 181.427 411.536 0 
181.395 411.448 0 181.357 411.361 0 181.314 411.277 0 
181.266 411.196 0 181.214 411.118 0 181.156 411.044 0 
181.093 410.973 0 181.027 410.907 0 180.956 410.844 0 
180.882 410.786 0 180.804 410.734 0 180.723 410.686 0 
180.639 410.643 0 180.552 410.605 0 180.464 410.573 0 
180.373 410.547 0 180.281 410.527 0 180.188 410.512 0 
180.094 410.503 0 180 410.5 0 179.906 410.503 0 
179.812 410.512 0 179.719 410.527 0 179.627 410.547 0 
179.536 410.573 0 179.448 410.605 0 179.361 410.643 0 
179.277 410.686 0 179.196 410.734 0 179.118 410.786 0 
179.044 410.844 0 178.973 410.907 0 178.907 410.973 0 
178.844 411.044 0 178.786 411.118 0 178.734 411.196 0 
178.686 411.277 0 178.643 411.361 0 178.605 411.448 0 
178.573 411.536 0 178.547 411.627 0 178.527 411.719 0 
178.512 411.812 0 178.503 411.906 0 178.5 412 0 
178.503 412.094 0 178.512 412.188 0 178.527 412.281 0 
178.547 412.373 0 178.573 412.464 0 178.605 412.552 0 
178.643 412.639 0 178.686 412.723 0 178.734 412.804 0 
178.786 412.882 0 178.844 412.956 0 178.907 413.027 0 
178.973 413.093 0 179.044 413.156 0 179.118 413.214 0 
179.196 413.266 0 179.277 413.314 0 179.361 413.357 0 
179.448 413.395 0 179.536 413.427 0 179.627 413.453 0 
179.719 413.473 0 179.812 413.488 0 179.906 413.497 0 
372 247.5 0 372.094 247.497 0 372.188 247.488 0 
372.281 247.473 0 372.373 247.453 0 372.464 247.427 0 
372.552 247.395 0 372.639 247.357 0 372.723 247.314 0 
372.804 247.266 0 372.882 247.214 0 372.956 247.156 0 
373.027 247.093 0 373.093 247.027 0 373.156 246.956 0 
373.214 246.882 0 373.266 246.804 0 373.314 246.723 0 
373.357 246.639 0 373.395 246.552 0 373.427 246.464 0 
373.453 246.373 0 373.473 246.281 0 373.488 246.188 0 
373.497 246.094 0 373.5 246 0 373.497 245.906 0 
373.488 245.812 0 373.473 245.719 0 373.453 245.627 0 
373.427 245.536 0 373.395 245.448 0 373.357 245.361 0 
373.314 245.277 0 373.266 245.196 0 373.214 245.118 0 
373.156 245.044 0 373.093 244.973 0 373.027 244.907 0 
372.956 244.844 0 372.882 244.786 0 372.804 244.734 0 
372.723 244.686 0 372.639 244.643 0 372.552 244.605 0 
372.464 244.573 0 372.373 244.547 0 372.281 244.527 0 
372.188 244.512 0 372.094 244.503 0 372 244.5 0 
371.906 244.503 0 371.812 244.512 0 371.719 244.527 0 
371.627 244.547 0 371.536 244.573 0 371.448 244.605 0 
371.361 244.643 0 371.277 244.686 0 371.196 244.734 0 
371.118 244.786 0 371.044 244.844 0 370.973 244.907 0 
370.907 244.973 0 370.844 245.044 0 370.786 245.118 0 
370.734 245.196 0 370.686 245.277 0 370.643 245.361 0 
370.605 245.448 0 370.573 245.536 0 370.547 245.627 0 
370.527 245.719 0 370.512 245.812 0 370.503 245.906 0 
370.5 246 0 370.503 246.094 0 370.512 246.188 0 
370.527 246.281 0 370.547 246.373 0 370.573 246.464 0 
370.605 246.552 0 370.643 246.639 0 370.686 246.723 0 
370.734 246.804 0 370.786 246.882 0 370.844 246.956 0 
370.907 247.027 0 370.973 247.093 0 371.044 247.156 0 
371.118 247.214 0 371.196 247.266 0 371.277 247.314 0 
371.361 247.357 0 371.448 247.395 0 371.536 247.427 0 
371.627 247.453 0 371.719 247.473 0 371.812 247.488 0 
371.906 247.497 0 314 455.5 0 314.094 455.497 0 
314.188 455.488 0 314.281 455.473 0 314.373 455.453 0 
314.464 455.427 0 314.552 455.395 0 314.639 455.357 0 
314.723 455.314 0 314.804 455.266 0 314.882 455.214 0 
314.956 455.156 0 315.027 455.093 0 315.093 455.027 0 
315.156 454.956 0 315.214 454.882 0 315.266 454.804 0 
315.314 454.723 0 315.357 454.639 0 315.395 454.552 0 
315.427 454.464 0 315.453 454.373 0 315.473 454.281 0 
315.488 454.188 0 315.497 454.094 0 315.5 454 0 
315.497 453.906 0 315.488 453.812 0 315.473 453.719 0 
315.453 453.627 0 315.427 453.536 0 315.395 453.448 0 
315.357 453.361 0 315.314 453.277 0 315.266 453.196 0 
315.214 453.118 0 315.156 453.044 0 315.093 452.973 0 
315.027 452.907 0 314.956 452.844 0 314.882 452.786 0 
314.804 452.734 0 314.723 452.686 0 314.639 452.643 0 
314.552 452.605 0 314.464 452.573 0 314.373 452.547 0 
314.281 452.527 0 314.188 452.512 0 314.094 452.503 0 
314 452.5 0 313.906 452.503 0 313.812 452.512 0 
313.719 452.527 0 313.627 452.547 0 313.536 452.573 0 
313.448 452.605 0 313.361 452.643 0 313.277 452.686 0 
313.196 452.734 0 313.118 452.786 0 313.044 452.844 0 
312.973 452.907 0 312.907 452.973 0 312.844 453.044 0 
312.786 453.118 0 312.734 453.196 0 312.686 453.277 0 
312.643 453.361 0 312.605 453.448 0 312.573 453.536 0 
312.547 453.627 0 312.527 453.719 0 312.512 453.812 0 
312.503 453.906 0 312.5 454 0 312.503 454.094 0 
312.512 454.188 0 312.527 454.281 0 312.547 454.373 0 
312.573 454.464 0 312.605 454.552 0 312.643 454.639 0 
312.686 454.723 0 312.734 454.804 0 312.786 454.882 0 
312.844 454.956 0 312.907 455.027 0 312.973 455.093 0 
313.044 455.156 0 313.118 455.214 0 313.196 455.266 0 
313.277 455.314 0 313.361 455.357 0 313.448 455.395 0 
313.536 455.427 0 313.627 455.453 0 313.719 455.473 0 
313.812 455.488 0 313.906 455.497 0 551 165.5 0 
551.094 165.497 0 551.188 165.488 0 551.281 165.473 0 
551.373 165.453 0 551.464 165.427 0 551.552 165.395 0 
551.639 165.357 0 551.723 165.314 0 551.804 165.266 0 
551.882 165.214 0 551.956 165.156 0 552.027 165.093 0 
552.093 165.027 0 552.156 164.956 0 552.214 164.882 0 
552.266 164.804 0 552.314 164.723 0 552.357 164.639 0 
552.395 164.552 0 552.427 164.464 0 552.453 164.373 0 
552.473 164.281 0 552.488 164.188 0 552.497 164.094 0 
552.5 164 0 552.497 163.906 0 552.488 163.812 0 
552.473 163.719 0 552.453 163.627 0 552.427 163.536 0 
552.395 163.448 0 552.357 163.361 0 552.314 163.277 0 
552.266 163.196 0 552.214 163.118 0 552.156 163.044 0 
552.093 162.973 0 552.027 162.907 0 551.956 162.844 0 
551.882 162.786 0 551.804 162.734 0 551.723 162.686 0 
551.639 162.643 0 551.552 162.605 0 551.464 162.573 0 
[...]
POINT_DATA 1700
SCALARS scales float
LOOKUP_TABLE default
3 3 3 3 3 3 3 3 3 
3 3 3 3 3 3 3 3 3 
3 3 3 3 3 3 3 3 3 
3 3 3 3 3 3 3 3 3 
3 3 3 3 3 3 3 3 3 
3 3 3 3 3 3 3 3 3 
3 3 3 3 3 3 3 3 3 
3 3 3 3 3 3 3 3 3 
3 3 3 3 3 3 3 3 3 
3 3 3 3 3 3 3 3 3 
3 3 3 3 3 3 3 3 3 
3 3 3 3 3 3 3 3 3 
3 3 3 3 3 3 3 3 3 
3 3 3 3 3 3 3 3 3 
3 3 3 3 3 3 3 3 3 
3 3 3 3 3 3 3 3 3 
3 3 3 3 3 3 3 3 3 
3 3 3 3 3 3 3 3 3 
3 3 3 3 3 3 3 3 3 
3 3 3 3 3 3 3 3 3 
3 3 3 3 3 3 3 3 3 
3 3 3 3 3 3 3 3 3 
3 3 3 3 3 3 3 3 3 
3 3 3 3 3 3 3 3 3 
3 3 3 3 3 3 3 3 3 
3 3 3 3 3 3 3 3 3 
3 3 3 3 3 3 3 3 3 
3 3 3 3 3 3 3 3 3 
3 3 3 3 3 3 3 3 3 
3 3 3 3 3 3 3 3 3 
3 3 3 3 3 3 3 3 3 
3 3 3 3 3 3 3 3 3 
3 3 3 3 3 3 3 3 3 
3 3 3 3 3 3 3 3 3 
3 3 3 3 3 3 3 3 3 
3 3 3 3 3 3 3 3 3 
3 3 3 3 3 3 3 3 3 
3 3 3 3 3 3 3 3 3 
3 3 3 3 3 3 3 3 3 
3 3 3 3 3 3 3 3 3 
3 3 3 3 3 3 3 3 3 
3 3 3 3 3 3 3 3 3 
3 3 3 3 3 3 3 3 3 
3 3 3 3 3 3 3 3 3 
3 3 3 3 3 3 3 3 3 
3 3 3 3 3 3 3 3 3 
3 3 3 3 3 3 3 3 3 
3 3 3 3 3 3 3 3 3 
3 3 3 3 3 3 3 3 3 
3 3 3 3 3 3 3 3 3 
3 3 3 3 3 3 3 3 3 
3 3 3 3 3 3 3 3 3 
3 3 3 3 3 3 3 3 3 
3 3 3 3 3 3 3 3 3 
3 3 3 3 3 3 3 3 3 
3 3 3 3 3 3 3 3 3 
3 3 3 3 3 3 3 3 3 
3 3 3 3 3 3 3 3 3 
3 3 3 3 3 3 3 3 3 
3 3 3 3 3 3 3 3 3 
3 3 3 3 3 3 3 3 3 
3 3 3 3 3 3 3 3 3 
3 3 3 3 3 3 3 3 3 
3 3 3 3 3 3 3 3 3 
3 3 3 3 3 3 3 3 3 
3 3 3 3 3 3 3 3 3 
3 3 3 3 3 3 3 3 3 
3 3 3 3 3 3 3 3 3 
3 3 3 3 3 3 3 3 3 
3 3 3 3 3 3 3 3 3 
3 3 3 3 3 3 3 3 3 
3 3 3 3 3 3 3 3 3 
3 3 3 3 3 3 3 3 3 
3 3 3 3 3 3 3 3 3 
3 3 3 3 3 3 3 3 3 
3 3 3 3 3 3 3 3 3 
3 3 3 3 3 3 3 3 3 
3 3 3 3 3 3 3 3 3 
3 3 3 3 3 3 3 3 3 
3 3 3 3 3 3 3 3 3 
3 3 3 3 3 3 3 3 3 
3 3 3 3 3 3 3 3 3 
3 3 3 3 3 3 3 3 3 
3 3 3 3 3 3 3 3 3 
3 3 3 3 3 3 3 3 3 
3 3 3 3 3 3 3 3 3 
3 3 3 3 3 3 3 3 3 
3 3 3 3 3 3 3 3 3 
3 3 3 3 3 3 3 3 3 
3 3 3 3 3 3 3 3 3 
3 3 3 3 3 3 3 3 3 
3 3 3 3 3 3 3 3 3 
3 3 3 3 3 3 3 3 3 
3 3 3 3 3 3 3 3 3 
3 3 3 3 3 3 3 3 3 
3 3 3 3 3 3 3 3 3 
3 3 3 3 3 3 3 3 3 
3 3 3 3 3 3 3 3 3 
3 3 3 3 3 3 3 3 3 
3 3 3 3 3 3 3 3 3 
3 3 3 3 3 3 3 3 3 
3 3 3 3 3 3 3 3 3 
3 3 3 3 3 3 3 3 3 
3 3 3 3 3 3 3 3 3 
3 3 3 3 3 3 3 3 3 
3 3 3 3 3 3 3 3 3 
3 3 3 3 3 3 3 3 3 
3 3 3 3 3 3 3 3 3 
3 3 3 3 3 3 3 3 3 
3 3 3 3 3 3 3 3 3 
3 3 3 3 3 3 3 3 3 
3 3 3 3 3 3 3 3 3 
3 3 3 3 3 3 3 3 3 
3 3 3 3 3 3 3 3 3 
3 3 3 3 3 3 3 3 3 
3 3 3 3 3 3 3 3 3 
3 3 3 3 3 3 3 3 3 
3 3 3 3 3 3 3 3 3 
3 3 3 3 3 3 3 3 3 
3 3 3 3 3 3 3 3 3 
3 3 3 3 3 3 3 3 3 
3 3 3 3 3 3 3 3 3 
3 3 3 3 3 3 3 3 3 
3 3 3 3 3 3 3 3 3 
3 3 3 3 3 3 3 3 3 
3 3 3 3 3 3 3 3 3 
3 3 3 3 3 3 3 3 3 
3 3 3 3 3 3 3 3 3 
3 3 3 3 3 3 3 3 3 
3 3 3 3 3 3 3 3 3 
3 3 3 3 3 3 3 3 3 
3 3 3 3 3 3 3 3 3 
3 3 3 3 3 3 3 3 3 
3 3 3 3 3 3 3 3 3 
3 3 3 3 3 3 3 3 3 
3 3 3 3 3 3 3 3 3 
3 3 3 3 3 3 3 3 3 
3 3 3 3 3 3 3 3 3 
3 3 3 3 3 3 3 3 3 
3 3 3 3 3 3 3 3 3 
3 3 3 3 3 3 3 3 3 
3 3 3 3 3 3 3 3 3 
3 3 3 3 3 3 3 3 3 
3 3 3 3 3 3 3 3 3 
3 3 3 3 3 3 3 3 3 
3 3 3 3 3 3 3 3 3 
3 3 3 3 3 3 3 3 3 
3 3 3 3 3 3 3 3 3 
3 3 3 3 3 3 3 3 3 
3 3 3 3 3 3 3 3 3 
3 3 3 3 3 3 3 3 3 
3 3 3 3 3 3 3 3 3 
3 3 3 3 3 3 3 3 3 
3 3 3 3 3 3 3 3 3 
3 3 3 3 3 3 3 3 3 
3 3 3 3 3 3 3 3 3 
3 3 3 3 3 3 3 3 3 
3 3 3 3 3 3 3 3 3 
3 3 3 3 3 3 3 3 3 
3 3 3 3 3 3 3 3 3 
3 3 3 3 3 3 3 3 3 
3 3 3 3 3 3 3 3 3 
3 3 3 3 3 3 3 3 3 
3 3 3 3 3 3 3 3 3 
3 3 3 3 3 3 3 3 3 
3 3 3 3 3 3 3 3 3 
3 3 3 3 3 3 3 3 3 
3 3 3 3 3 3 3 3 3 
3 3 3 3 3 3 3 3 3 
3 3 3 3 3 3 3 3 3 
3 3 3 3 3 3 3 3 3 
3 3 3 3 3 3 3 3 3 
3 3 3 3 3 3 3 3 3 
3 3 3 3 3 3 3 3 3 
3 3 3 3 3 3 3 3 3 
3 3 3 3 3 3 3 3 3 
3 3 3 3 3 3 3 3 3 
3 3 3 3 3 3 3 3 3 
3 3 3 3 3 3 3 3 3 
3 3 3 3 3 3 3 3 3 
3 3 3 3 3 3 3 3 3 
3 3 3 3 3 3 3 3 3 
3 3 3 3 3 3 3 3 3 
3 3 3 3 3 3 3 3 3 
3 3 3 3 3 3 3 3 3 
3 3 3 3 3 3 3 3 3 
3 3 3 3 3 3 3 3 3 
3 3 3 3 3 3 3 3 3 
3 3 3 3 3 3 3 3 
FIELD FieldData 1
Colors 3 1700 unsigned_char
153 0 153 153 0 153 153 0 153 
153 0 153 153 0 153 153 0 153 
153 0 153 153 0 153 153 0 153 
153 0 153 153 0 153 153 0 153 
153 0 153 153 0 153 153 0 153 
153 0 153 153 0 153 153 0 153 
153 0 153 153 0 153 153 0 153 
153 0 153 153 0 153 153 0 153 
153 0 153 153 0 153 153 0 153 
153 0 153 153 0 153 153 0 153 
153 0 153 153 0 153 153 0 153 
153 0 153 153 0 153 153 0 153 
153 0 153 153 0 153 153 0 153 
153 0 153 153 0 153 153 0 153 
153 0 153 153 0 153 153 0 153 
153 0 153 153 0 153 153 0 153 
153 0 153 153 0 153 153 0 153 
153 0 153 153 0 153 153 0 153 
153 0 153 153 0 153 153 0 153 
153 0 153 153 0 153 153 0 153 
153 0 153 153 0 153 153 0 153 
153 0 153 153 0 153 153 0 153 
153 0 153 153 0 153 153 0 153 
153 0 153 153 0 153 153 0 153 
153 0 153 153 0 153 153 0 153 
153 0 153 153 0 153 153 0 153 
153 0 153 153 0 153 153 0 153 
153 0 153 153 0 153 153 0 153 
153 0 153 153 0 153 153 0 153 
153 0 153 153 0 153 153 0 153 
153 0 153 153 0 153 153 0 153 
153 0 153 153 0 153 153 0 153 
153 0 153 153 0 153 153 0 153 
153 0 153 153 0 153 153 0 153 
153 0 153 153 0 153 153 0 153 
153 0 153 153 0 153 153 0 153 
153 0 153 153 0 153 153 0 153 
153 0 153 153 0 153 153 0 153 
153 0 153 153 0 153 153 0 153 
153 0 153 153 0 153 153 0 153 
153 0 153 153 0 153 153 0 153 
153 0 153 153 0 153 153 0 153 
153 0 153 153 0 153 153 0 153 
153 0 153 153 0 153 153 0 153 
153 0 153 153 0 153 153 0 153 
153 0 153 153 0 153 153 0 153 
153 0 153 153 0 153 153 0 153 
153 0 153 153 0 153 153 0 153 
153 0 153 153 0 153 153 0 153 
153 0 153 153 0 153 153 0 153 
153 0 153 153 0 153 153 0 153 
153 0 153 153 0 153 153 0 153 
153 0 153 153 0 153 153 0 153 
153 0 153 153 0 153 153 0 153 
153 0 153 153 0 153 153 0 153 
153 0 153 153 0 153 153 0 153 
153 0 153 153 0 153 153 0 153 
153 0 153 153 0 153 153 0 153 
153 0 153 153 0 153 153 0 153 
153 0 153 153 0 153 153 0 153 
153 0 153 153 0 153 153 0 153 
153 0 153 153 0 153 153 0 153 
153 0 153 153 0 153 153 0 153 
153 0 153 153 0 153 153 0 153 
153 0 153 153 0 153 153 0 153 
153 0 153 153 0 153 153 0 153 
153 0 153 153 0 153 153 0 153 
153 0 153 153 0 153 153 0 153 
153 0 153 153 0 153 153 0 153 
153 0 153 153 0 153 153 0 153 
153 0 153 153 0 153 153 0 153 
153 0 153 153 0 153 153 0 153 
153 0 153 153 0 153 153 0 153 
153 0 153 153 0 153 153 0 153 
153 0 153 153 0 153 153 0 153 
153 0 153 153 0 153 153 0 153 
153 0 153 153 0 153 153 0 153 
153 0 153 153 0 153 153 0 153 
153 0 153 153 0 153 153 0 153 
153 0 153 153 0 153 153 0 153 
153 0 153 153 0 153 153 0 153 
153 0 153 153 0 153 153 0 153 
153 0 153 153 0 153 153 0 153 
153 0 153 153 0 153 153 0 153 
153 0 153 153 0 153 153 0 153 
153 0 153 153 0 153 153 0 153 
153 0 153 153 0 153 153 0 153 
153 0 153 153 0 153 153 0 153 
153 0 153 153 0 153 153 0 153 
153 0 153 153 0 153 153 0 153 
153 0 153 153 0 153 153 0 153 
153 0 153 153 0 153 153 0 153 
153 0 153 153 0 153 153 0 153 
153 0 153 153 0 153 153 0 153 
153 0 153 153 0 153 153 0 153 
153 0 153 153 0 153 153 0 153 
153 0 153 153 0 153 153 0 153 
153 0 153 153 0 153 153 0 153 
153 0 153 153 0 153 153 0 153 
153 0 153 153 0 153 153 0 153 
153 0 153 153 0 153 153 0 153 
153 0 153 153 0 153 153 0 153 
153 0 153 153 0 153 153 0 153 
153 0 153 153 0 153 153 0 153 
153 0 153 153 0 153 153 0 153 
153 0 153 153 0 153 153 0 153 
153 0 153 153 0 153 153 0 153 
153 0 153 153 0 153 153 0 153 
153 0 153 153 0 153 153 0 153 
153 0 153 153 0 153 153 0 153 
153 0 153 153 0 153 153 0 153 
153 0 153 153 0 153 153 0 153 
153 0 153 153 0 153 153 0 153 
153 0 153 153 0 153 153 0 153 
153 0 153 153 0 153 153 0 153 
153 0 153 153 0 153 153 0 153 
153 0 153 153 0 153 153 0 153 
153 0 153 153 0 153 153 0 153 
153 0 153 153 0 153 153 0 153 
153 0 153 153 0 153 153 0 153 
153 0 153 153 0 153 153 0 153 
153 0 153 153 0 153 153 0 153 
153 0 153 153 0 153 153 0 153 
153 0 153 153 0 153 153 0 153 
153 0 153 153 0 153 153 0 153 
153 0 153 153 0 153 153 0 153 
153 0 153 153 0 153 153 0 153 
153 0 153 153 0 153 153 0 153 
153 0 153 153 0 153 153 0 153 
153 0 153 153 0 153 153 0 153 
153 0 153 153 0 153 153 0 153 
153 0 153 153 0 153 153 0 153 
153 0 153 153 0 153 153 0 153 
153 0 153 153 0 153 153 0 153 
153 0 153 153 0 153 153 0 153 
153 0 153 153 0 153 153 0 153 
153 0 153 153 0 153 153 0 153 
153 0 153 153 0 153 153 0 153 
153 0 153 153 0 153 153 0 153 
153 0 153 153 0 153 153 0 153 
153 0 153 153 0 153 153 0 153 
153 0 153 153 0 153 153 0 153 
153 0 153 153 0 153 153 0 153 
153 0 153 153 0 153 153 0 153 
153 0 153 153 0 153 153 0 153 
153 0 153 153 0 153 153 0 153 
153 0 153 153 0 153 153 0 153 
153 0 153 153 0 153 153 0 153 
153 0 153 153 0 153 153 0 153 
153 0 153 153 0 153 153 0 153 
153 0 153 153 0 153 153 0 153 
153 0 153 153 0 153 153 0 153 
153 0 153 153 0 153 153 0 153 
153 0 153 153 0 153 153 0 153 
153 0 153 153 0 153 153 0 153 
153 0 153 153 0 153 153 0 153 
153 0 153 153 0 153 153 0 153 
153 0 153 153 0 153 153 0 153 
153 0 153 153 0 153 153 0 153 
153 0 153 153 0 153 153 0 153 
153 0 153 153 0 153 153 0 153 
153 0 153 153 0 153 153 0 153 
153 0 153 153 0 153 153 0 153 
153 0 153 153 0 153 153 0 153 
153 0 153 153 0 153 153 0 153 
153 0 153 153 0 153 153 0 153 
153 0 153 153 0 153 153 0 153 
153 0 153 153 0 153 153 0 153 
153 0 153 153 0 153 153 0 153 
153 0 153 153 0 153 153 0 153 
153 0 153 153 0 153 153 0 153 
153 0 153 153 0 153 153 0 153 
153 0 153 153 0 153 153 0 153 
153 0 153 153 0 153 153 0 153 
153 0 153 153 0 153 153 0 153 
153 0 153 153 0 153 153 0 153 
153 0 153 153 0 153 153 0 153 
153 0 153 153 0 153 153 0 153 
153 0 153 153 0 153 153 0 153 
153 0 153 153 0 153 153 0 153 
153 0 153 153 0 153 153 0 153 
153 0 153 153 0 153 153 0 153 
153 0 153 153 0 153 153 0 153 
153 0 153 153 0 153 153 0 153 
153 0 153 153 0 153 153 0 153 
153 0 153 153 0 153 153 0 153 
153 0 153 153 0 153 153 0 153 
153 0 153 153 0 153 153 0 153 
153 0 153 153 0 153 153 0 153 
153 0 153 153 0 153 153 0 153 
153 0 153 153 0 153 153 0 153 
153 0 153 153 0 153 153 0 153 
153 0 153 153 0 153 153 0 153 
153 0 153 153 0 153 153 0 153 
153 0 153 153 0 153 153 0 153 
153 0 153 153 0 153 153 0 153 
153 0 153 153 0 153 153 0 153 
153 0 153 153 0 153 153 0 153 
153 0 153 153 0 153 153 0 153 
153 0 153 153 0 153 153 0 153 
153 0 153 153 0 153 153 0 153 
153 0 153 153 0 153 153 0 153 
153 0 153 153 0 153 153 0 153 
153 0 153 153 0 153 153 0 153 
153 0 153 153 0 153 153 0 153 
153 0 153 153 0 153 153 0 153 
153 0 153 153 0 153 153 0 153 
153 0 153 153 0 153 153 0 153 
153 0 153 153 0 153 153 0 153 
153 0 153 153 0 153 153 0 153 
153 0 153 153 0 153 153 0 153 
153 0 153 153 0 153 153 0 153 
153 0 153 153 0 153 153 0 153 
153 0 153 153 0 153 153 0 153 
153 0 153 153 0 153 153 0 153 
153 0 153 153 0 153 153 0 153 
153 0 153 153 0 153 153 0 153 
153 0 153 153 0 153 153 0 153 
153 0 153 153 0 153 153 0 153 
153 0 153 153 0 153 153 0 153 
153 0 153 153 0 153 153 0 153 
153 0 153 153 0 153 153 0 153 
153 0 153 153 0 153 153 0 153 
153 0 153 153 0 153 153 0 153 
153 0 153 153 0 153 153 0 153 
153 0 153 153 0 153 153 0 153 
153 0 153 153 0 153 153 0 153 
153 0 153 153 0 153 153 0 153 
153 0 153 153 0 153 153 0 153 
153 0 153 153 0 153 153 0 153 
153 0 153 153 0 153 153 0 153 
153 0 153 153 0 153 153 0 153 
153 0 153 153 0 153 153 0 153 
153 0 153 153 0 153 153 0 153 
153 0 153 153 0 153 153 0 153 
153 0 153 153 0 153 153 0 153 
153 0 153 153 0 153 153 0 153 
153 0 153 153 0 153 153 0 153 
153 0 153 153 0 153 153 0 153 
153 0 153 153 0 153 153 0 153 
153 0 153 153 0 153 153 0 153 
153 0 153 153 0 153 153 0 153 
153 0 153 153 0 153 153 0 153 
153 0 153 153 0 153 153 0 153 
153 0 153 153 0 153 153 0 153 
153 0 153 153 0 153 153 0 153 
153 0 153 153 0 153 153 0 153 
153 0 153 153 0 153 153 0 153 
153 0 153 153 0 153 153 0 153 
153 0 153 153 0 153 153 0 153 
153 0 153 153 0 153 153 0 153 
153 0 153 153 0 153 153 0 153 
153 0 153 153 0 153 153 0 153 
153 0 153 153 0 153 153 0 153 
153 0 153 153 0 153 153 0 153 
153 0 153 153 0 153 153 0 153 
153 0 153 153 0 153 153 0 153 
153 0 153 153 0 153 153 0 153 
153 0 153 153 0 153 153 0 153 
153 0 153 153 0 153 153 0 153 
153 0 153 153 0 153 153 0 153 
153 0 153 153 0 153 153 0 153 
153 0 153 153 0 153 153 0 153 
153 0 153 153 0 153 153 0 153 
153 0 153 153 0 153 153 0 153 
153 0 153 153 0 153 153 0 153 
153 0 153 153 0 153 153 0 153 
153 0 153 153 0 153 153 0 153 
153 0 153 153 0 153 153 0 153 
153 0 153 153 0 153 153 0 153 
153 0 153 153 0 153 153 0 153 
153 0 153 153 0 153 153 0 153 
153 0 153 153 0 153 153 0 153 
153 0 153 153 0 153 153 0 153 
153 0 153 153 0 153 153 0 153 
153 0 153 153 0 153 153 0 153 
153 0 153 153 0 153 153 0 153 
153 0 153 153 0 153 153 0 153 
153 0 153 153 0 153 153 0 153 
153 0 153 153 0 153 153 0 153 
153 0 153 153 0 153 153 0 153 
153 0 153 153 0 153 153 0 153 
153 0 153 153 0 153 153 0 153 
153 0 153 153 0 153 153 0 153 
153 0 153 153 0 153 153 0 153 
153 0 153 153 0 153 153 0 153 
153 0 153 153 0 153 153 0 153 
153 0 153 153 0 153 153 0 153 
153 0 153 153 0 153 153 0 153 
153 0 153 153 0 153 153 0 153 
153 0 153 153 0 153 153 0 153 
153 0 153 153 0 153 153 0 153 
153 0 153 153 0 153 153 0 153 
153 0 153 153 0 153 153 0 153 
153 0 153 153 0 153 153 0 153 
153 0 153 153 0 153 153 0 153 
153 0 153 153 0 153 153 0 153 
153 0 153 153 0 153 153 0 153 
153 0 153 153 0 153 153 0 153 
153 0 153 153 0 153 153 0 153 
153 0 153 153 0 153 153 0 153 
153 0 153 153 0 153 153 0 153 
153 0 153 153 0 153 153 0 153 
153 0 153 153 0 153 153 0 153 
153 0 153 153 0 153 153 0 153 
153 0 153 153 0 153 153 0 153 
153 0 153 153 0 153 153 0 153 
153 0 153 153 0 153 153 0 153 
153 0 153 153 0 153 153 0 153 
153 0 153 153 0 153 153 0 153 
153 0 153 153 0 153 153 0 153 
153 0 153 153 0 153 153 0 153 
153 0 153 153 0 153 153 0 153 
153 0 153 153 0 153 153 0 153 
153 0 153 153 0 153 153 0 153 
153 0 153 153 0 153 153 0 153 
153 0 153 153 0 153 153 0 153 
153 0 153 153 0 153 153 0 153 
153 0 153 153 0 153 153 0 153 
153 0 153 153 0 153 153 0 153 
153 0 153 153 0 153 153 0 153 
153 0 153 153 0 153 153 0 153 
153 0 153 153 0 153 153 0 153 
153 0 153 153 0 153 153 0 153 
153 0 153 153 0 153 153 0 153 
153 0 153 153 0 153 153 0 153 
153 0 153 153 0 153 153 0 153 
153 0 153 153 0 153 153 0 153 
153 0 153 153 0 153 153 0 153 
153 0 153 153 0 153 153 0 153 
153 0 153 153 0 153 153 0 153 
153 0 153 153 0 153 153 0 153 
153 0 153 153 0 153 153 0 153 
153 0 153 153 0 153 153 0 153 
153 0 153 153 0 153 153 0 153 
153 0 153 153 0 153 153 0 153 
153 0 153 153 0 153 153 0 153 
153 0 153 153 0 153 153 0 153 
153 0 153 153 0 153 153 0 153 
153 0 153 153 0 153 153 0 153 
153 0 153 153 0 153 153 0 153 
153 0 153 153 0 153 153 0 153 
153 0 153 153 0 153 153 0 153 
153 0 153 153 0 153 153 0 153 
153 0 153 153 0 153 153 0 153 
153 0 153 153 0 153 153 0 153 
153 0 153 153 0 153 153 0 153 
153 0 153 153 0 153 153 0 153 
153 0 153 153 0 153 153 0 153 
153 0 153 153 0 153 153 0 153 
153 0 153 153 0 153 153 0 153 
153 0 153 153 0 153 153 0 153 
153 0 153 153 0 153 153 0 153 
153 0 153 153 0 153 153 0 153 
153 0 153 153 0 153 153 0 153 
153 0 153 153 0 153 153 0 153 
153 0 153 153 0 153 153 0 153 
153 0 153 153 0 153 153 0 153 
153 0 153 153 0 153 153 0 153 
153 0 153 153 0 153 153 0 153 
153 0 153 153 0 153 153 0 153 
153 0 153 153 0 153 153 0 153 
153 0 153 153 0 153 153 0 153 
153 0 153 153 0 153 153 0 153 
153 0 153 153 0 153 153 0 153 
153 0 153 153 0 153 153 0 153 
153 0 153 153 0 153 153 0 153 
153 0 153 153 0 153 153 0 153 
153 0 153 153 0 153 153 0 153 
153 0 153 153 0 153 153 0 153 
153 0 153 153 0 153 153 0 153 
153 0 153 153 0 153 153 0 153 
153 0 153 153 0 153 153 0 153 
153 0 153 153 0 153 153 0 153 
153 0 153 153 0 153 153 0 153 
153 0 153 153 0 153 153 0 153 
153 0 153 153 0 153 153 0 153 
153 0 153 153 0 153 153 0 153 
153 0 153 153 0 153 153 0 153 
153 0 153 153 0 153 153 0 153 
153 0 153 153 0 153 153 0 153 
153 0 153 153 0 153 153 0 153 
153 0 153 153 0 153 153 0 153 
153 0 153 153 0 153 153 0 153 
153 0 153 153 0 153 153 0 153 
153 0 153 153 0 153 153 0 153 
153 0 153 153 0 153 153 0 153 
153 0 153 153 0 153 153 0 153 
153 0 153 153 0 153 153 0 153 
153 0 153 153 0 153 153 0 153 
153 0 153 153 0 153 153 0 153 
153 0 153 153 0 153 153 0 153 
153 0 153 153 0 153 153 0 153 
153 0 153 153 0 153 153 0 153 
153 0 153 153 0 153 153 0 153 
153 0 153 153 0 153 153 0 153 
153 0 153 153 0 153 153 0 153 
153 0 153 153 0 153 153 0 153 
153 0 153 153 0 153 153 0 153 
153 0 153 153 0 153 153 0 153 
153 0 153 153 0 153 153 0 153 
153 0 153 153 0 153 153 0 153 
153 0 153 153 0 153 153 0 153 
153 0 153 153 0 153 153 0 153 
153 0 153 153 0 153 153 0 153 
153 0 153 153 0 153 153 0 153 
153 0 153 153 0 153 153 0 153 
153 0 153 153 0 153 153 0 153 
153 0 153 153 0 153 153 0 153 
153 0 153 153 0 153 153 0 153 
153 0 153 153 0 153 153 0 153 
153 0 153 153 0 153 153 0 153 
153 0 153 153 0 153 153 0 153 
153 0 153 153 0 153 153 0 153 
153 0 153 153 0 153 153 0 153 
153 0 153 153 0 153 153 0 153 
153 0 153 153 0 153 153 0 153 
153 0 153 153 0 153 153 0 153 
153 0 153 153 0 153 153 0 153 
153 0 153 153 0 153 153 0 153 
153 0 153 153 0 153 153 0 153 
153 0 153 153 0 153 153 0 153 
153 0 153 153 0 153 153 0 153 
153 0 153 153 0 153 153 0 153 
153 0 153 153 0 153 153 0 153 
153 0 153 153 0 153 153 0 153 
153 0 153 153 0 153 153 0 153 
153 0 153 153 0 153 153 0 153 
153 0 153 153 0 153 153 0 153 
153 0 153 153 0 153 153 0 153 
153 0 153 153 0 153 153 0 153 
153 0 153 153 0 153 153 0 153 
153 0 153 153 0 153 153 0 153 
153 0 153 153 0 153 153 0 153 
153 0 153 153 0 153 153 0 153 
153 0 153 153 0 153 153 0 153 
153 0 153 153 0 153 153 0 153 
153 0 153 153 0 153 153 0 153 
153 0 153 153 0 153 153 0 153 
153 0 153 153 0 153 153 0 153 
153 0 153 153 0 153 153 0 153 
153 0 153 153 0 153 153 0 153 
153 0 153 153 0 153 153 0 153 
153 0 153 153 0 153 153 0 153 
153 0 153 153 0 153 153 0 153 
153 0 153 153 0 153 153 0 153 
153 0 153 153 0 153 153 0 153 
153 0 153 153 0 153 153 0 153 
153 0 153 153 0 153 153 0 153 
153 0 153 153 0 153 153 0 153 
153 0 153 153 0 153 153 0 153 
153 0 153 153 0 153 153 0 153 
153 0 153 153 0 153 153 0 153 
153 0 153 153 0 153 153 0 153 
153 0 153 153 0 153 153 0 153 
153 0 153 153 0 153 153 0 153 
153 0 153 153 0 153 153 0 153 
153 0 153 153 0 153 153 0 153 
153 0 153 153 0 153 153 0 153 
153 0 153 153 0 153 153 0 153 
153 0 153 153 0 153 153 0 153 
153 0 153 153 0 153 153 0 153 
153 0 153 153 0 153 153 0 153 
153 0 153 153 0 153 153 0 153 
153 0 153 153 0 153 153 0 153 
153 0 153 153 0 153 153 0 153 
153 0 153 153 0 153 153 0 153 
153 0 153 153 0 153 153 0 153 
153 0 153 153 0 153 153 0 153 
153 0 153 153 0 153 153 0 153 
153 0 153 153 0 153 153 0 153 
153 0 153 153 0 153 153 0 153 
153 0 153 153 0 153 153 0 153 
153 0 153 153 0 153 153 0 153 
153 0 153 153 0 153 153 0 153 
153 0 153 153 0 153 153 0 153 
153 0 153 153 0 153 153 0 153 
153 0 153 153 0 153 153 0 153 
153 0 153 153 0 153 153 0 153 
153 0 153 153 0 153 153 0 153 
153 0 153 153 0 153 153 0 153 
153 0 153 153 0 153 153 0 153 
153 0 153 153 0 153 153 0 153 
153 0 153 153 0 153 153 0 153 
153 0 153 153 0 153 153 0 153 
153 0 153 153 0 153 153 0 153 
153 0 153 153 0 153 153 0 153 
153 0 153 153 0 153 153 0 153 
153 0 153 153 0 153 153 0 153 
153 0 153 153 0 153 153 0 153 
153 0 153 153 0 153 153 0 153 
153 0 153 153 0 153 153 0 153 
153 0 153 153 0 153 153 0 153 
153 0 153 153 0 153 153 0 153 
153 0 153 153 0 153 153 0 153 
153 0 153 153 0 153 153 0 153 
153 0 153 153 0 153 153 0 153 
153 0 153 153 0 153 153 0 153 
153 0 153 153 0 153 153 0 153 
153 0 153 153 0 153 153 0 153 
153 0 153 153 0 153 153 0 153 
153 0 153 153 0 153 153 0 153 
153 0 153 153 0 153 153 0 153 
153 0 153 153 0 153 153 0 153 
153 0 153 153 0 153 153 0 153 
153 0 153 153 0 153 153 0 153 
153 0 153 153 0 153 153 0 153 
153 0 153 153 0 153 153 0 153 
153 0 153 153 0 153 153 0 153 
153 0 153 153 0 153 153 0 153 
153 0 153 153 0 153 153 0 153 
153 0 153 153 0 153 153 0 153 
153 0 153 153 0 153 153 0 153 
153 0 153 153 0 153 153 0 153 
153 0 153 153 0 153 153 0 153 
153 0 153 153 0 153 153 0 153 
153 0 153 153 0 153 153 0 153 
153 0 153 153 0 153 153 0 153 
153 0 153 153 0 153 153 0 153 
153 0 153 153 0 153 153 0 153 
153 0 153 153 0 153 153 0 153 
153 0 153 153 0 153 153 0 153 
153 0 153 153 0 153 153 0 153 
153 0 153 153 0 153 153 0 153 
153 0 153 153 0 153 153 0 153 
153 0 153 153 0 153 153 0 153 