# vtk DataFile Version 3.0
vtk output
ASCII
DATASET POLYDATA
POINTS 3600 float
10 169.5 0 10.2198 169.493 0 10.4387 169.472 0 
10.6558 169.438 0 10.8704 169.39 0 11.0816 169.329 0 
11.2884 169.254 0 11.4902 169.167 0 11.6861 169.067 0 
11.8754 168.955 0 12.0572 168.832 0 12.231 168.697 0 
12.3959 168.551 0 12.5514 168.396 0 12.6968 168.231 0 
12.8316 168.057 0 12.9551 167.875 0 13.0671 167.686 0 
13.1669 167.49 0 13.2542 167.288 0 13.3287 167.082 0 
13.39 166.87 0 13.438 166.656 0 13.4724 166.439 0 
13.4931 166.22 0 13.5 166 0 13.4931 165.78 0 
13.4724 165.561 0 13.438 165.344 0 13.39 165.13 0 
13.3287 164.918 0 13.2542 164.712 0 13.1669 164.51 0 
13.0671 164.314 0 12.9551 164.125 0 12.8316 163.943 0 
12.6968 163.769 0 12.5514 163.604 0 12.3959 163.449 0 
12.231 163.303 0 12.0572 163.168 0 11.8754 163.045 0 
11.6861 162.933 0 11.4902 162.833 0 11.2884 162.746 0 
11.0816 162.671 0 10.8704 162.61 0 10.6558 162.562 0 
10.4387 162.528 0 10.2198 162.507 0 10 162.5 0 
9.78023 162.507 0 9.56133 162.528 0 9.34417 162.562 0 
9.12959 162.61 0 8.91844 162.671 0 8.71156 162.746 0 
8.50977 162.833 0 8.31386 162.933 0 8.12461 163.045 0 
7.94275 163.168 0 7.76902 163.303 0 7.60408 163.449 0 
7.44861 163.604 0 7.3032 163.769 0 7.16844 163.943 0 
7.04485 164.125 0 6.93293 164.314 0 6.83311 164.51 0 
6.74578 164.712 0 6.6713 164.918 0 6.60996 165.13 0 
6.56199 165.344 0 6.5276 165.561 0 6.50691 165.78 0 
6.5 166 0 6.50691 166.22 0 6.5276 166.439 0 
6.56199 166.656 0 6.60996 166.87 0 6.6713 167.082 0 
6.74578 167.288 0 6.83311 167.49 0 6.93293 167.686 0 
7.04485 167.875 0 7.16844 168.057 0 7.3032 168.231 0 
7.44861 168.396 0 7.60408 168.551 0 7.76902 168.697 0 
7.94275 168.832 0 8.12461 168.955 0 8.31386 169.067 0 
8.50977 169.167 0 8.71156 169.254 0 8.91844 169.329 0 
9.12959 169.39 0 9.34417 169.438 0 9.56133 169.472 0 
9.78023 169.493 0 10 91.5 0 10.2198 91.4931 0 
10.4387 91.4724 0 10.6558 91.438 0 10.8704 91.39 0 
11.0816 91.3287 0 11.2884 91.2542 0 11.4902 91.1669 0 
11.6861 91.0671 0 11.8754 90.9551 0 12.0572 90.8316 0 
12.231 90.6968 0 12.3959 90.5514 0 12.5514 90.3959 0 
12.6968 90.231 0 12.8316 90.0573 0 12.9551 89.8754 0 
13.0671 89.6861 0 13.1669 89.4902 0 13.2542 89.2884 0 
13.3287 89.0816 0 13.39 88.8704 0 13.438 88.6558 0 
13.4724 88.4387 0 13.4931 88.2198 0 13.5 88 0 
13.4931 87.7802 0 13.4724 87.5613 0 13.438 87.3442 0 
13.39 87.1296 0 13.3287 86.9184 0 13.2542 86.7116 0 
13.1669 86.5098 0 13.0671 86.3139 0 12.9551 86.1246 0 
12.8316 85.9427 0 12.6968 85.769 0 12.5514 85.6041 0 
12.3959 85.4486 0 12.231 85.3032 0 12.0572 85.1684 0 
11.8754 85.0449 0 11.6861 84.9329 0 11.4902 84.8331 0 
11.2884 84.7458 0 11.0816 84.6713 0 10.8704 84.61 0 
10.6558 84.562 0 10.4387 84.5276 0 10.2198 84.5069 0 
10 84.5 0 9.78023 84.5069 0 9.56133 84.5276 0 
9.34417 84.562 0 9.12959 84.61 0 8.91844 84.6713 0 
8.71156 84.7458 0 8.50977 84.8331 0 8.31386 84.9329 0 
8.12461 85.0449 0 7.94275 85.1684 0 7.76902 85.3032 0 
7.60408 85.4486 0 7.44861 85.6041 0 7.3032 85.769 0 
7.16844 85.9427 0 7.04485 86.1246 0 6.93293 86.3139 0 
6.83311 86.5098 0 6.74578 86.7116 0 6.6713 86.9184 0 
6.60996 87.1296 0 6.56199 87.3442 0 6.5276 87.5613 0 
6.50691 87.7802 0 6.5 88 0 6.50691 88.2198 0 
6.5276 88.4387 0 6.56199 88.6558 0 6.60996 88.8704 0 
6.6713 89.0816 0 6.74578 89.2884 0 6.83311 89.4902 0 
6.93293 89.6861 0 7.04485 89.8754 0 7.16844 90.0573 0 
7.3032 90.231 0 7.44861 90.3959 0 7.60408 90.5514 0 
7.76902 90.6968 0 7.94275 90.8316 0 8.12461 90.9551 0 
8.31386 91.0671 0 8.50977 91.1669 0 8.71156 91.2542 0 
8.91844 91.3287 0 9.12959 91.39 0 9.34417 91.438 0 
9.56133 91.4724 0 9.78023 91.4931 0 23 264.5 0 
23.2198 264.493 0 23.4387 264.472 0 23.6558 264.438 0 
23.8704 264.39 0 24.0816 264.329 0 24.2884 264.254 0 
24.4902 264.167 0 24.6861 264.067 0 24.8754 263.955 0 
25.0572 263.832 0 25.231 263.697 0 25.3959 263.551 0 
25.5514 263.396 0 25.6968 263.231 0 25.8316 263.057 0 
25.9551 262.875 0 26.0671 262.686 0 26.1669 262.49 0 
26.2542 262.288 0 26.3287 262.082 0 26.39 261.87 0 
26.438 261.656 0 26.4724 261.439 0 26.4931 261.22 0 
26.5 261 0 26.4931 260.78 0 26.4724 260.561 0 
26.438 260.344 0 26.39 260.13 0 26.3287 259.918 0 
26.2542 259.712 0 26.1669 259.51 0 26.0671 259.314 0 
25.9551 259.125 0 25.8316 258.943 0 25.6968 258.769 0 
25.5514 258.604 0 25.3959 258.449 0 25.231 258.303 0 
25.0572 258.168 0 24.8754 258.045 0 24.6861 257.933 0 
24.4902 257.833 0 24.2884 257.746 0 24.0816 257.671 0 
23.8704 257.61 0 23.6558 257.562 0 23.4387 257.528 0 
23.2198 257.507 0 23 257.5 0 22.7802 257.507 0 
22.5613 257.528 0 22.3442 257.562 0 22.1296 257.61 0 
21.9184 257.671 0 21.7116 257.746 0 21.5098 257.833 0 
21.3139 257.933 0 21.1246 258.045 0 20.9428 258.168 0 
20.769 258.303 0 20.6041 258.449 0 20.4486 258.604 0 
20.3032 258.769 0 20.1684 258.943 0 20.0449 259.125 0 
19.9329 259.314 0 19.8331 259.51 0 19.7458 259.712 0 
19.6713 259.918 0 19.61 260.13 0 19.562 260.344 0 
19.5276 260.561 0 19.5069 260.78 0 19.5 261 0 
19.5069 261.22 0 19.5276 261.439 0 19.562 261.656 0 
19.61 261.87 0 19.6713 262.082 0 19.7458 262.288 0 
19.8331 262.49 0 19.9329 262.686 0 20.0449 262.875 0 
20.1684 263.057 0 20.3032 263.231 0 20.4486 263.396 0 
20.6041 263.551 0 20.769 263.697 0 20.9428 263.832 0 
21.1246 263.955 0 21.3139 264.067 0 21.5098 264.167 0 
21.7116 264.254 0 21.9184 264.329 0 22.1296 264.39 0 
22.3442 264.438 0 22.5613 264.472 0 22.7802 264.493 0 
22 258.5 0 22.2198 258.493 0 22.4387 258.472 0 
22.6558 258.438 0 22.8704 258.39 0 23.0816 258.329 0 
23.2884 258.254 0 23.4902 258.167 0 23.6861 258.067 0 
23.8754 257.955 0 24.0572 257.832 0 24.231 257.697 0 
24.3959 257.551 0 24.5514 257.396 0 24.6968 257.231 0 
24.8316 257.057 0 24.9551 256.875 0 25.0671 256.686 0 
25.1669 256.49 0 25.2542 256.288 0 25.3287 256.082 0 
25.39 255.87 0 25.438 255.656 0 25.4724 255.439 0 
25.4931 255.22 0 25.5 255 0 25.4931 254.78 0 
25.4724 254.561 0 25.438 254.344 0 25.39 254.13 0 
25.3287 253.918 0 25.2542 253.712 0 25.1669 253.51 0 
25.0671 253.314 0 24.9551 253.125 0 24.8316 252.943 0 
24.6968 252.769 0 24.5514 252.604 0 24.3959 252.449 0 
24.231 252.303 0 24.0572 252.168 0 23.8754 252.045 0 
23.6861 251.933 0 23.4902 251.833 0 23.2884 251.746 0 
23.0816 251.671 0 22.8704 251.61 0 22.6558 251.562 0 
22.4387 251.528 0 22.2198 251.507 0 22 251.5 0 
21.7802 251.507 0 21.5613 251.528 0 21.3442 251.562 0 
21.1296 251.61 0 20.9184 251.671 0 20.7116 251.746 0 
20.5098 251.833 0 20.3139 251.933 0 20.1246 252.045 0 
19.9428 252.168 0 19.769 252.303 0 19.6041 252.449 0 
19.4486 252.604 0 19.3032 252.769 0 19.1684 252.943 0 
19.0449 253.125 0 18.9329 253.314 0 18.8331 253.51 0 
18.7458 253.712 0 18.6713 253.918 0 18.61 254.13 0 
18.562 254.344 0 18.5276 254.561 0 18.5069 254.78 0 
18.5 255 0 18.5069 255.22 0 18.5276 255.439 0 
18.562 255.656 0 18.61 255.87 0 18.6713 256.082 0 
18.7458 256.288 0 18.8331 256.49 0 18.9329 256.686 0 
19.0449 256.875 0 19.1684 257.057 0 19.3032 257.231 0 
19.4486 257.396 0 19.6041 257.551 0 19.769 257.697 0 
19.9428 257.832 0 20.1246 257.955 0 20.3139 258.067 0 
20.5098 258.167 0 20.7116 258.254 0 20.9184 258.329 0 
21.1296 258.39 0 21.3442 258.438 0 21.5613 258.472 0 
21.7802 258.493 0 263.5 13.5 0 263.72 13.4931 0 
263.939 13.4724 0 264.156 13.438 0 264.37 13.39 0 
264.582 13.3287 0 264.788 13.2542 0 264.99 13.1669 0 
265.186 13.0671 0 265.375 12.9551 0 265.557 12.8316 0 
265.731 12.6968 0 265.896 12.5514 0 266.051 12.3959 0 
266.197 12.231 0 266.332 12.0572 0 266.455 11.8754 0 
266.567 11.6861 0 266.667 11.4902 0 266.754 11.2884 0 
266.829 11.0816 0 266.89 10.8704 0 266.938 10.6558 0 
266.972 10.4387 0 266.993 10.2198 0 267 10 0 
266.993 9.78023 0 266.972 9.56133 0 266.938 9.34417 0 
266.89 9.12959 0 266.829 8.91844 0 266.754 8.71156 0 
266.667 8.50977 0 266.567 8.31386 0 266.455 8.12461 0 
266.332 7.94275 0 266.197 7.76902 0 266.051 7.60408 0 
265.896 7.44861 0 265.731 7.3032 0 265.557 7.16844 0 
265.375 7.04485 0 265.186 6.93293 0 264.99 6.83311 0 
264.788 6.74578 0 264.582 6.6713 0 264.37 6.60996 0 
264.156 6.56199 0 263.939 6.5276 0 263.72 6.50691 0 
263.5 6.5 0 263.28 6.50691 0 263.061 6.5276 0 
262.844 6.56199 0 262.63 6.60996 0 262.418 6.6713 0 
262.212 6.74578 0 262.01 6.83311 0 261.814 6.93293 0 
261.625 7.04485 0 261.443 7.16844 0 261.269 7.3032 0 
261.104 7.44861 0 260.949 7.60408 0 260.803 7.76902 0 
260.668 7.94275 0 260.545 8.12461 0 260.433 8.31386 0 
260.333 8.50977 0 260.246 8.71156 0 260.171 8.91844 0 
260.11 9.12959 0 260.062 9.34417 0 260.028 9.56133 0 
260.007 9.78023 0 260 10 0 260.007 10.2198 0 
260.028 10.4387 0 260.062 10.6558 0 260.11 10.8704 0 
260.171 11.0816 0 260.246 11.2884 0 260.333 11.4902 0 
260.433 11.6861 0 260.545 11.8754 0 260.668 12.0572 0 
260.803 12.231 0 260.949 12.3959 0 261.104 12.5514 0 
261.269 12.6968 0 261.443 12.8316 0 261.625 12.9551 0 
261.814 13.0671 0 262.01 13.1669 0 262.212 13.2542 0 
262.418 13.3287 0 262.63 13.39 0 262.844 13.438 0 
263.061 13.4724 0 263.28 13.4931 0 244 13.5 0 
244.22 13.4931 0 244.439 13.4724 0 244.656 13.438 0 
244.87 13.39 0 245.082 13.3287 0 245.288 13.2542 0 
245.49 13.1669 0 245.686 13.0671 0 245.875 12.9551 0 
246.057 12.8316 0 246.231 12.6968 0 246.396 12.5514 0 
246.551 12.3959 0 246.697 12.231 0 246.832 12.0572 0 
246.955 11.8754 0 247.067 11.6861 0 247.167 11.4902 0 
247.254 11.2884 0 247.329 11.0816 0 247.39 10.8704 0 
247.438 10.6558 0 247.472 10.4387 0 247.493 10.2198 0 
247.5 10 0 247.493 9.78023 0 247.472 9.56133 0 
247.438 9.34417 0 247.39 9.12959 0 247.329 8.91844 0 
247.254 8.71156 0 247.167 8.50977 0 247.067 8.31386 0 
246.955 8.12461 0 246.832 7.94275 0 246.697 7.76902 0 
246.551 7.60408 0 246.396 7.44861 0 246.231 7.3032 0 
246.057 7.16844 0 245.875 7.04485 0 245.686 6.93293 0 
245.49 6.83311 0 245.288 6.74578 0 245.082 6.6713 0 
244.87 6.60996 0 244.656 6.56199 0 244.439 6.5276 0 
244.22 6.50691 0 244 6.5 0 243.78 6.50691 0 
243.561 6.5276 0 243.344 6.56199 0 243.13 6.60996 0 
242.918 6.6713 0 242.712 6.74578 0 242.51 6.83311 0 
[...]
POINT_DATA 3600
SCALARS scales float
LOOKUP_TABLE default
7 7 7 7 7 7 7 7 7 
7 7 7 7 7 7 7 7 7 
7 7 7 7 7 7 7 7 7 
7 7 7 7 7 7 7 7 7 
7 7 7 7 7 7 7 7 7 
7 7 7 7 7 7 7 7 7 
7 7 7 7 7 7 7 7 7 
7 7 7 7 7 7 7 7 7 
7 7 7 7 7 7 7 7 7 
7 7 7 7 7 7 7 7 7 
7 7 7 7 7 7 7 7 7 
7 7 7 7 7 7 7 7 7 
7 7 7 7 7 7 7 7 7 
7 7 7 7 7 7 7 7 7 
7 7 7 7 7 7 7 7 7 
7 7 7 7 7 7 7 7 7 
7 7 7 7 7 7 7 7 7 
7 7 7 7 7 7 7 7 7 
7 7 7 7 7 7 7 7 7 
7 7 7 7 7 7 7 7 7 
7 7 7 7 7 7 7 7 7 
7 7 7 7 7 7 7 7 7 
7 7 7 7 7 7 7 7 7 
7 7 7 7 7 7 7 7 7 
7 7 7 7 7 7 7 7 7 
7 7 7 7 7 7 7 7 7 
7 7 7 7 7 7 7 7 7 
7 7 7 7 7 7 7 7 7 
7 7 7 7 7 7 7 7 7 
7 7 7 7 7 7 7 7 7 
7 7 7 7 7 7 7 7 7 
7 7 7 7 7 7 7 7 7 
7 7 7 7 7 7 7 7 7 
7 7 7 7 7 7 7 7 7 
7 7 7 7 7 7 7 7 7 
7 7 7 7 7 7 7 7 7 
7 7 7 7 7 7 7 7 7 
7 7 7 7 7 7 7 7 7 
7 7 7 7 7 7 7 7 7 
7 7 7 7 7 7 7 7 7 
7 7 7 7 7 7 7 7 7 
7 7 7 7 7 7 7 7 7 
7 7 7 7 7 7 7 7 7 
7 7 7 7 7 7 7 7 7 
7 7 7 7 7 7 7 7 7 
7 7 7 7 7 7 7 7 7 
7 7 7 7 7 7 7 7 7 
7 7 7 7 7 7 7 7 7 
7 7 7 7 7 7 7 7 7 
7 7 7 7 7 7 7 7 7 
7 7 7 7 7 7 7 7 7 
7 7 7 7 7 7 7 7 7 
7 7 7 7 7 7 7 7 7 
7 7 7 7 7 7 7 7 7 
7 7 7 7 7 7 7 7 7 
7 7 7 7 7 7 7 7 7 
7 7 7 7 7 7 7 7 7 
7 7 7 7 7 7 7 7 7 
7 7 7 7 7 7 7 7 7 
7 7 7 7 7 7 7 7 7 
7 7 7 7 7 7 7 7 7 
7 7 7 7 7 7 7 7 7 
7 7 7 7 7 7 7 7 7 
7 7 7 7 7 7 7 7 7 
7 7 7 7 7 7 7 7 7 
7 7 7 7 7 7 7 7 7 
7 7 7 7 7 7 7 7 7 
7 7 7 7 7 7 7 7 7 
7 7 7 7 7 7 7 7 7 
7 7 7 7 7 7 7 7 7 
7 7 7 7 7 7 7 7 7 
7 7 7 7 7 7 7 7 7 
7 7 7 7 7 7 7 7 7 
7 7 7 7 7 7 7 7 7 
7 7 7 7 7 7 7 7 7 
7 7 7 7 7 7 7 7 7 
7 7 7 7 7 7 7 7 7 
7 7 7 7 7 7 7 7 7 
7 7 7 7 7 7 7 7 7 
7 7 7 7 7 7 7 7 7 
7 7 7 7 7 7 7 7 7 
7 7 7 7 7 7 7 7 7 
7 7 7 7 7 7 7 7 7 
7 7 7 7 7 7 7 7 7 
7 7 7 7 7 7 7 7 7 
7 7 7 7 7 7 7 7 7 
7 7 7 7 7 7 7 7 7 
7 7 7 7 7 7 7 7 7 
7 7 7 7 7 7 7 7 7 
7 7 7 7 7 7 7 7 7 
7 7 7 7 7 7 7 7 7 
7 7 7 7 7 7 7 7 7 
7 7 7 7 7 7 7 7 7 
7 7 7 7 7 7 7 7 7 
7 7 7 7 7 7 7 7 7 
7 7 7 7 7 7 7 7 7 
7 7 7 7 7 7 7 7 7 
7 7 7 7 7 7 7 7 7 
7 7 7 7 7 7 7 7 7 
7 7 7 7 7 7 7 7 7 
7 7 7 7 7 7 7 7 7 
7 7 7 7 7 7 7 7 7 
7 7 7 7 7 7 7 7 7 
7 7 7 7 7 7 7 7 7 
7 7 7 7 7 7 7 7 7 
7 7 7 7 7 7 7 7 7 
7 7 7 7 7 7 7 7 7 
7 7 7 7 7 7 7 7 7 
7 7 7 7 7 7 7 7 7 
7 7 7 7 7 7 7 7 7 
7 7 7 7 7 7 7 7 7 
7 7 7 7 7 7 7 7 7 
7 7 7 7 7 7 7 7 7 
7 7 7 7 7 7 7 7 7 
7 7 7 7 7 7 7 7 7 
7 7 7 7 7 7 7 7 7 
7 7 7 7 7 7 7 7 7 
7 7 7 7 7 7 7 7 7 
7 7 7 7 7 7 7 7 7 
7 7 7 7 7 7 7 7 7 
7 7 7 7 7 7 7 7 7 
7 7 7 7 7 7 7 7 7 
7 7 7 7 7 7 7 7 7 
7 7 7 7 7 7 7 7 7 
7 7 7 7 7 7 7 7 7 
7 7 7 7 7 7 7 7 7 
7 7 7 7 7 7 7 7 7 
7 7 7 7 7 7 7 7 7 
7 7 7 7 7 7 7 7 7 
7 7 7 7 7 7 7 7 7 
7 7 7 7 7 7 7 7 7 
7 7 7 7 7 7 7 7 7 
7 7 7 7 7 7 7 7 7 
7 7 7 7 7 7 7 7 7 
7 7 7 7 7 7 7 7 7 
7 7 7 7 7 7 7 7 7 
7 7 7 7 7 7 7 7 7 
7 7 7 7 7 7 7 7 7 
7 7 7 7 7 7 7 7 7 
7 7 7 7 7 7 7 7 7 
7 7 7 7 7 7 7 7 7 
7 7 7 7 7 7 7 7 7 
7 7 7 7 7 7 7 7 7 
7 7 7 7 7 7 7 7 7 
7 7 7 7 7 7 7 7 7 
7 7 7 7 7 7 7 7 7 
7 7 7 7 7 7 7 7 7 
7 7 7 7 7 7 7 7 7 
7 7 7 7 7 7 7 7 7 
7 7 7 7 7 7 7 7 7 
7 7 7 7 7 7 7 7 7 
7 7 7 7 7 7 7 7 7 
7 7 7 7 7 7 7 7 7 
7 7 7 7 7 7 7 7 7 
7 7 7 7 7 7 7 7 7 
7 7 7 7 7 7 7 7 7 
7 7 7 7 7 7 7 7 7 
7 7 7 7 7 7 7 7 7 
7 7 7 7 7 7 7 7 7 
7 7 7 7 7 7 7 7 7 
7 7 7 7 7 7 7 7 7 
7 7 7 7 7 7 7 7 7 
7 7 7 7 7 7 7 7 7 
7 7 7 7 7 7 7 7 7 
7 7 7 7 7 7 7 7 7 
7 7 7 7 7 7 7 7 7 
7 7 7 7 7 7 7 7 7 
7 7 7 7 7 7 7 7 7 
7 7 7 7 7 7 7 7 7 
7 7 7 7 7 7 7 7 7 
7 7 7 7 7 7 7 7 7 
7 7 7 7 7 7 7 7 7 
7 7 7 7 7 7 7 7 7 
7 7 7 7 7 7 7 7 7 
7 7 7 7 7 7 7 7 7 
7 7 7 7 7 7 7 7 7 
7 7 7 7 7 7 7 7 7 
7 7 7 7 7 7 7 7 7 
7 7 7 7 7 7 7 7 7 
7 7 7 7 7 7 7 7 7 
7 7 7 7 7 7 7 7 7 
7 7 7 7 7 7 7 7 7 
7 7 7 7 7 7 7 7 7 
7 7 7 7 7 7 7 7 7 
7 7 7 7 7 7 7 7 7 
7 7 7 7 7 7 7 7 7 
7 7 7 7 7 7 7 7 7 
7 7 7 7 7 7 7 7 7 
7 7 7 7 7 7 7 7 7 
7 7 7 7 7 7 7 7 7 
7 7 7 7 7 7 7 7 7 
7 7 7 7 7 7 7 7 7 
7 7 7 7 7 7 7 7 7 
7 7 7 7 7 7 7 7 7 
7 7 7 7 7 7 7 7 7 
7 7 7 7 7 7 7 7 7 
7 7 7 7 7 7 7 7 7 
7 7 7 7 7 7 7 7 7 
7 7 7 7 7 7 7 7 7 
7 7 7 7 7 7 7 7 7 
7 7 7 7 7 7 7 7 7 
7 7 7 7 7 7 7 7 7 
7 7 7 7 7 7 7 7 7 
7 7 7 7 7 7 7 7 7 
7 7 7 7 7 7 7 7 7 
7 7 7 7 7 7 7 7 7 
7 7 7 7 7 7 7 7 7 
7 7 7 7 7 7 7 7 7 
7 7 7 7 7 7 7 7 7 
7 7 7 7 7 7 7 7 7 
7 7 7 7 7 7 7 7 7 
7 7 7 7 7 7 7 7 7 
7 7 7 7 7 7 7 7 7 
7 7 7 7 7 7 7 7 7 
7 7 7 7 7 7 7 7 7 
7 7 7 7 7 7 7 7 7 
7 7 7 7 7 7 7 7 7 
7 7 7 7 7 7 7 7 7 
7 7 7 7 7 7 7 7 7 
7 7 7 7 7 7 7 7 7 
7 7 7 7 7 7 7 7 7 
7 7 7 7 7 7 7 7 7 
7 7 7 7 7 7 7 7 7 
7 7 7 7 7 7 7 7 7 
7 7 7 7 7 7 7 7 7 
7 7 7 7 7 7 7 7 7 
7 7 7 7 7 7 7 7 7 
7 7 7 7 7 7 7 7 7 
7 7 7 7 7 7 7 7 7 
7 7 7 7 7 7 7 7 7 
7 7 7 7 7 7 7 7 7 
7 7 7 7 7 7 7 7 7 
7 7 7 7 7 7 7 7 7 
7 7 7 7 7 7 7 7 7 
7 7 7 7 7 7 7 7 7 
7 7 7 7 7 7 7 7 7 
7 7 7 7 7 7 7 7 7 
7 7 7 7 7 7 7 7 7 
7 7 7 7 7 7 7 7 7 
7 7 7 7 7 7 7 7 7 
7 7 7 7 7 7 7 7 7 
7 7 7 7 7 7 7 7 7 
7 7 7 7 7 7 7 7 7 
7 7 7 7 7 7 7 7 7 
7 7 7 7 7 7 7 7 7 
7 7 7 7 7 7 7 7 7 
7 7 7 7 7 7 7 7 7 
7 7 7 7 7 7 7 7 7 
7 7 7 7 7 7 7 7 7 
7 7 7 7 7 7 7 7 7 
7 7 7 7 7 7 7 7 7 
7 7 7 7 7 7 7 7 7 
7 7 7 7 7 7 7 7 7 
7 7 7 7 7 7 7 7 7 
7 7 7 7 7 7 7 7 7 
7 7 7 7 7 7 7 7 7 
7 7 7 7 7 7 7 7 7 
7 7 7 7 7 7 7 7 7 
7 7 7 7 7 7 7 7 7 
7 7 7 7 7 7 7 7 7 
7 7 7 7 7 7 7 7 7 
7 7 7 7 7 7 7 7 7 
7 7 7 7 7 7 7 7 7 
7 7 7 7 7 7 7 7 7 
7 7 7 7 7 7 7 7 7 
7 7 7 7 7 7 7 7 7 
7 7 7 7 7 7 7 7 7 
7 7 7 7 7 7 7 7 7 
7 7 7 7 7 7 7 7 7 
7 7 7 7 7 7 7 7 7 
7 7 7 7 7 7 7 7 7 
7 7 7 7 7 7 7 7 7 
7 7 7 7 7 7 7 7 7 
7 7 7 7 7 7 7 7 7 
7 7 7 7 7 7 7 7 7 
7 7 7 7 7 7 7 7 7 
7 7 7 7 7 7 7 7 7 
7 7 7 7 7 7 7 7 7 
7 7 7 7 7 7 7 7 7 
7 7 7 7 7 7 7 7 7 
7 7 7 7 7 7 7 7 7 
7 7 7 7 7 7 7 7 7 
7 7 7 7 7 7 7 7 7 
7 7 7 7 7 7 7 7 7 
7 7 7 7 7 7 7 7 7 
7 7 7 7 7 7 7 7 7 
7 7 7 7 7 7 7 7 7 
7 7 7 7 7 7 7 7 7 
7 7 7 7 7 7 7 7 7 
7 7 7 7 7 7 7 7 7 
7 7 7 7 7 7 7 7 7 
7 7 7 7 7 7 7 7 7 
7 7 7 7 7 7 7 7 7 
7 7 7 7 7 7 7 7 7 
7 7 7 7 7 7 7 7 7 
7 7 7 7 7 7 7 7 7 
7 7 7 7 7 7 7 7 7 
7 7 7 7 7 7 7 7 7 
7 7 7 7 7 7 7 7 7 
7 7 7 7 7 7 7 7 7 
7 7 7 7 7 7 7 7 7 
7 7 7 7 7 7 7 7 7 
7 7 7 7 7 7 7 7 7 
7 7 7 7 7 7 7 7 7 
7 7 7 7 7 7 7 7 7 
7 7 7 7 7 7 7 7 7 
7 7 7 7 7 7 7 7 7 
7 7 7 7 7 7 7 7 7 
7 7 7 7 7 7 7 7 7 
7 7 7 7 7 7 7 7 7 
7 7 7 7 7 7 7 7 7 
7 7 7 7 7 7 7 7 7 
7 7 7 7 7 7 7 7 7 
7 7 7 7 7 7 7 7 7 
7 7 7 7 7 7 7 7 7 
7 7 7 7 7 7 7 7 7 
7 7 7 7 7 7 7 7 7 
7 7 7 7 7 7 7 7 7 
7 7 7 7 7 7 7 7 7 
7 7 7 7 7 7 7 7 7 
7 7 7 7 7 7 7 7 7 
7 7 7 7 7 7 7 7 7 
7 7 7 7 7 7 7 7 7 
7 7 7 7 7 7 7 7 7 
7 7 7 7 7 7 7 7 7 
7 7 7 7 7 7 7 7 7 
7 7 7 7 7 7 7 7 7 
7 7 7 7 7 7 7 7 7 
7 7 7 7 7 7 7 7 7 
7 7 7 7 7 7 7 7 7 
7 7 7 7 7 7 7 7 7 
7 7 7 7 7 7 7 7 7 
7 7 7 7 7 7 7 7 7 
7 7 7 7 7 7 7 7 7 
7 7 7 7 7 7 7 7 7 
7 7 7 7 7 7 7 7 7 
7 7 7 7 7 7 7 7 7 
7 7 7 7 7 7 7 7 7 
7 7 7 7 7 7 7 7 7 
7 7 7 7 7 7 7 7 7 
7 7 7 7 7 7 7 7 7 
7 7 7 7 7 7 7 7 7 
7 7 7 7 7 7 7 7 7 
7 7 7 7 7 7 7 7 7 
7 7 7 7 7 7 7 7 7 
7 7 7 7 7 7 7 7 7 
7 7 7 7 7 7 7 7 7 
7 7 7 7 7 7 7 7 7 
7 7 7 7 7 7 7 7 7 
7 7 7 7 7 7 7 7 7 
7 7 7 7 7 7 7 7 7 
7 7 7 7 7 7 7 7 7 
7 7 7 7 7 7 7 7 7 
7 7 7 7 7 7 7 7 7 
7 7 7 7 7 7 7 7 7 
7 7 7 7 7 7 7 7 7 
7 7 7 7 7 7 7 7 7 
7 7 7 7 7 7 7 7 7 
7 7 7 7 7 7 7 7 7 
7 7 7 7 7 7 7 7 7 
7 7 7 7 7 7 7 7 7 
7 7 7 7 7 7 7 7 7 
7 7 7 7 7 7 7 7 7 
7 7 7 7 7 7 7 7 7 
7 7 7 7 7 7 7 7 7 
7 7 7 7 7 7 7 7 7 
7 7 7 7 7 7 7 7 7 
7 7 7 7 7 7 7 7 7 
7 7 7 7 7 7 7 7 7 
7 7 7 7 7 7 7 7 7 
7 7 7 7 7 7 7 7 7 
7 7 7 7 7 7 7 7 7 
7 7 7 7 7 7 7 7 7 
7 7 7 7 7 7 7 7 7 
7 7 7 7 7 7 7 7 7 
7 7 7 7 7 7 7 7 7 
7 7 7 7 7 7 7 7 7 
7 7 7 7 7 7 7 7 7 
7 7 7 7 7 7 7 7 7 
7 7 7 7 7 7 7 7 7 
7 7 7 7 7 7 7 7 7 
7 7 7 7 7 7 7 7 7 
7 7 7 7 7 7 7 7 7 
7 7 7 7 7 7 7 7 7 
7 7 7 7 7 7 7 7 7 
7 7 7 7 7 7 7 7 7 
7 7 7 7 7 7 7 7 7 
7 7 7 7 7 7 7 7 7 
7 7 7 7 7 7 7 7 7 
7 7 7 7 7 7 7 7 7 
7 7 7 7 7 7 7 7 7 
7 7 7 7 7 7 7 7 7 
7 7 7 7 7 7 7 7 7 
7 7 7 7 7 7 7 7 7 
7 7 7 7 7 7 7 7 7 
7 7 7 7 7 7 7 7 7 
7 7 7 7 7 7 7 7 7 
7 7 7 7 7 7 7 7 7 
7 7 7 7 7 7 7 7 7 
7 7 7 7 7 7 7 7 7 

FIELD FieldData 1
Colors 3 3600 unsigned_char
153 0 153 153 0 153 153 0 153 
153 0 153 153 0 153 153 0 153 
153 0 153 153 0 153 153 0 153 
153 0 153 153 0 153 153 0 153 
153 0 153 153 0 153 153 0 153 
153 0 153 153 0 153 153 0 153 
153 0 153 153 0 153 153 0 153 
153 0 153 153 0 153 153 0 153 
153 0 153 153 0 153 153 0 153 
153 0 153 153 0 153 153 0 153 
153 0 153 153 0 153 153 0 153 
153 0 153 153 0 153 153 0 153 
153 0 153 153 0 153 153 0 153 
153 0 153 153 0 153 153 0 153 
153 0 153 153 0 153 153 0 153 
153 0 153 153 0 153 153 0 153 
153 0 153 153 0 153 153 0 153 
153 0 153 153 0 153 153 0 153 
153 0 153 153 0 153 153 0 153 
153 0 153 153 0 153 153 0 153 
153 0 153 153 0 153 153 0 153 
153 0 153 153 0 153 153 0 153 
153 0 153 153 0 153 153 0 153 
153 0 153 153 0 153 153 0 153 
153 0 153 153 0 153 153 0 153 
153 0 153 153 0 153 153 0 153 
153 0 153 153 0 153 153 0 153 
153 0 153 153 0 153 153 0 153 
153 0 153 153 0 153 153 0 153 
153 0 153 153 0 153 153 0 153 
153 0 153 153 0 153 153 0 153 
153 0 153 153 0 153 153 0 153 
153 0 153 153 0 153 153 0 153 
153 0 153 153 0 153 153 0 153 
153 0 153 153 0 153 153 0 153 
153 0 153 153 0 153 153 0 153 
153 0 153 153 0 153 153 0 153 
153 0 153 153 0 153 153 0 153 
153 0 153 153 0 153 153 0 153 
153 0 153 153 0 153 153 0 153 
153 0 153 153 0 153 153 0 153 
153 0 153 153 0 153 153 0 153 
153 0 153 153 0 153 153 0 153 
153 0 153 153 0 153 153 0 153 
153 0 153 153 0 153 153 0 153 
153 0 153 153 0 153 153 0 153 
153 0 153 153 0 153 153 0 153 
153 0 153 153 0 153 153 0 153 
153 0 153 153 0 153 153 0 153 
153 0 153 153 0 153 153 0 153 
153 0 153 153 0 153 153 0 153 
153 0 153 153 0 153 153 0 153 
153 0 153 153 0 153 153 0 153 
153 0 153 153 0 153 153 0 153 
153 0 153 153 0 153 153 0 153 
153 0 153 153 0 153 153 0 153 
153 0 153 153 0 153 153 0 153 
153 0 153 153 0 153 153 0 153 
153 0 153 153 0 153 153 0 153 
153 0 153 153 0 153 153 0 153 
153 0 153 153 0 153 153 0 153 
153 0 153 153 0 153 153 0 153 
153 0 153 153 0 153 153 0 153 
153 0 153 153 0 153 153 0 153 
153 0 153 153 0 153 153 0 153 
153 0 153 153 0 153 153 0 153 
153 0 153 153 0 153 153 0 153 
153 0 153 153 0 153 153 0 153 
153 0 153 153 0 153 153 0 153 
153 0 153 153 0 153 153 0 153 
153 0 153 153 0 153 153 0 153 
153 0 153 153 0 153 153 0 153 
153 0 153 153 0 153 153 0 153 
153 0 153 153 0 153 153 0 153 
153 0 153 153 0 153 153 0 153 
153 0 153 153 0 153 153 0 153 
153 0 153 153 0 153 153 0 153 
153 0 153 153 0 153 153 0 153 
153 0 153 153 0 153 153 0 153 
153 0 153 153 0 153 153 0 153 
153 0 153 153 0 153 153 0 153 
153 0 153 153 0 153 153 0 153 
153 0 153 153 0 153 153 0 153 
153 0 153 153 0 153 153 0 153 
153 0 153 153 0 153 153 0 153 
153 0 153 153 0 153 153 0 153 
153 0 153 153 0 153 153 0 153 
153 0 153 153 0 153 153 0 153 
153 0 153 153 0 153 153 0 153 
153 0 153 153 0 153 153 0 153 
153 0 153 153 0 153 153 0 153 
153 0 153 153 0 153 153 0 153 
153 0 153 153 0 153 153 0 153 
153 0 153 153 0 153 153 0 153 
153 0 153 153 0 153 153 0 153 
153 0 153 153 0 153 153 0 153 
153 0 153 153 0 153 153 0 153 
153 0 153 153 0 153 153 0 153 
153 0 153 153 0 153 153 0 153 
153 0 153 153 0 153 153 0 153 
153 0 153 153 0 153 153 0 153 
153 0 153 153 0 153 153 0 153 
153 0 153 153 0 153 153 0 153 
153 0 153 153 0 153 153 0 153 
153 0 153 153 0 153 153 0 153 
153 0 153 153 0 153 153 0 153 
153 0 153 153 0 153 153 0 153 
153 0 153 153 0 153 153 0 153 
153 0 153 153 0 153 153 0 153 
153 0 153 153 0 153 153 0 153 
153 0 153 153 0 153 153 0 153 
153 0 153 153 0 153 153 0 153 
153 0 153 153 0 153 153 0 153 
153 0 153 153 0 153 153 0 153 
153 0 153 153 0 153 153 0 153 
153 0 153 153 0 153 153 0 153 
153 0 153 153 0 153 153 0 153 
153 0 153 153 0 153 153 0 153 
153 0 153 153 0 153 153 0 153 
153 0 153 153 0 153 153 0 153 
153 0 153 153 0 153 153 0 153 
153 0 153 153 0 153 153 0 153 
153 0 153 153 0 153 153 0 153 
153 0 153 153 0 153 153 0 153 
153 0 153 153 0 153 153 0 153 
153 0 153 153 0 153 153 0 153 
153 0 153 153 0 153 153 0 153 
153 0 153 153 0 153 153 0 153 
153 0 153 153 0 153 153 0 153 
153 0 153 153 0 153 153 0 153 
153 0 153 153 0 153 153 0 153 
153 0 153 153 0 153 153 0 153 
153 0 153 153 0 153 153 0 153 
153 0 153 153 0 153 153 0 153 
153 0 153 153 0 153 153 0 153 
153 0 153 153 0 153 153 0 153 
153 0 153 153 0 153 153 0 153 
153 0 153 153 0 153 153 0 153 
153 0 153 153 0 153 153 0 153 
153 0 153 153 0 153 153 0 153 
153 0 153 153 0 153 153 0 153 
153 0 153 153 0 153 153 0 153 
153 0 153 153 0 153 153 0 153 
153 0 153 153 0 153 153 0 153 
153 0 153 153 0 153 153 0 153 
153 0 153 153 0 153 153 0 153 
153 0 153 153 0 153 153 0 153 
153 0 153 153 0 153 153 0 153 
153 0 153 153 0 153 153 0 153 
153 0 153 153 0 153 153 0 153 
153 0 153 153 0 153 153 0 153 
153 0 153 153 0 153 153 0 153 
153 0 153 153 0 153 153 0 153 
153 0 153 153 0 153 153 0 153 
153 0 153 153 0 153 153 0 153 
153 0 153 153 0 153 153 0 153 
153 0 153 153 0 153 153 0 153 
153 0 153 153 0 153 153 0 153 
153 0 153 153 0 153 153 0 153 
153 0 153 153 0 153 153 0 153 
153 0 153 153 0 153 153 0 153 
153 0 153 153 0 153 153 0 153 
153 0 153 153 0 153 153 0 153 
153 0 153 153 0 153 153 0 153 
153 0 153 153 0 153 153 0 153 
153 0 153 153 0 153 153 0 153 
153 0 153 153 0 153 153 0 153 
153 0 153 153 0 153 153 0 153 
153 0 153 153 0 153 153 0 153 
153 0 153 153 0 153 153 0 153 
153 0 153 153 0 153 153 0 153 
153 0 153 153 0 153 153 0 153 
153 0 153 153 0 153 153 0 153 
153 0 153 153 0 153 153 0 153 
153 0 153 153 0 153 153 0 153 
153 0 153 153 0 153 153 0 153 
153 0 153 153 0 153 153 0 153 
153 0 153 153 0 153 153 0 153 
153 0 153 153 0 153 153 0 153 
153 0 153 153 0 153 153 0 153 
153 0 153 153 0 153 153 0 153 
153 0 153 153 0 153 153 0 153 
153 0 153 153 0 153 153 0 153 
153 0 153 153 0 153 153 0 153 
153 0 153 153 0 153 153 0 153 
153 0 153 153 0 153 153 0 153 
153 0 153 153 0 153 153 0 153 
153 0 153 153 0 153 153 0 153 
153 0 153 153 0 153 153 0 153 
153 0 153 153 0 153 153 0 153 
153 0 153 153 0 153 153 0 153 
153 0 153 153 0 153 153 0 153 
153 0 153 153 0 153 153 0 153 
153 0 153 153 0 153 153 0 153 
153 0 153 153 0 153 153 0 153 
153 0 153 153 0 153 153 0 153 
153 0 153 153 0 153 153 0 153 
153 0 153 153 0 153 153 0 153 
153 0 153 153 0 153 153 0 153 
153 0 153 153 0 153 153 0 153 
153 0 153 153 0 153 153 0 153 
153 0 153 153 0 153 153 0 153 
153 0 153 153 0 153 153 0 153 
153 0 153 153 0 153 153 0 153 
153 0 153 153 0 153 153 0 153 
153 0 153 153 0 153 153 0 153 
153 0 153 153 0 153 153 0 153 
153 0 153 153 0 153 153 0 153 
153 0 153 153 0 153 153 0 153 
153 0 153 153 0 153 153 0 153 
153 0 153 153 0 153 153 0 153 
153 0 153 153 0 153 153 0 153 
153 0 153 153 0 153 153 0 153 
153 0 153 153 0 153 153 0 153 
153 0 153 153 0 153 153 0 153 
153 0 153 153 0 153 153 0 153 
153 0 153 153 0 153 153 0 153 
153 0 153 153 0 153 153 0 153 
153 0 153 153 0 153 153 0 153 
153 0 153 153 0 153 153 0 153 
153 0 153 153 0 153 153 0 153 
153 0 153 153 0 153 153 0 153 
153 0 153 153 0 153 153 0 153 
153 0 153 153 0 153 153 0 153 
153 0 153 153 0 153 153 0 153 
153 0 153 153 0 153 153 0 153 
153 0 153 153 0 153 153 0 153 
153 0 153 153 0 153 153 0 153 
153 0 153 153 0 153 153 0 153 
153 0 153 153 0 153 153 0 153 
153 0 153 153 0 153 153 0 153 
153 0 153 153 0 153 153 0 153 
153 0 153 153 0 153 153 0 153 
153 0 153 153 0 153 153 0 153 
153 0 153 153 0 153 153 0 153 
153 0 153 153 0 153 153 0 153 
153 0 153 153 0 153 153 0 153 
153 0 153 153 0 153 153 0 153 
153 0 153 153 0 153 153 0 153 
153 0 153 153 0 153 153 0 153 
153 0 153 153 0 153 153 0 153 
153 0 153 153 0 153 153 0 153 
153 0 153 153 0 153 153 0 153 
153 0 153 153 0 153 153 0 153 
153 0 153 153 0 153 153 0 153 
153 0 153 153 0 153 153 0 153 
153 0 153 153 0 153 153 0 153 
153 0 153 153 0 153 153 0 153 
153 0 153 153 0 153 153 0 153 
153 0 153 153 0 153 153 0 153 
153 0 153 153 0 153 153 0 153 
153 0 153 153 0 153 153 0 153 
153 0 153 153 0 153 153 0 153 
153 0 153 153 0 153 153 0 153 
153 0 153 153 0 153 153 0 153 
153 0 153 153 0 153 153 0 153 
153 0 153 153 0 153 153 0 153 
153 0 153 153 0 153 153 0 153 
153 0 153 153 0 153 153 0 153 
153 0 153 153 0 153 153 0 153 
153 0 153 153 0 153 153 0 153 
153 0 153 153 0 153 153 0 153 
153 0 153 153 0 153 153 0 153 
153 0 153 153 0 153 153 0 153 
153 0 153 153 0 153 153 0 153 
153 0 153 153 0 153 153 0 153 
153 0 153 153 0 153 153 0 153 
153 0 153 153 0 153 153 0 153 
153 0 153 153 0 153 153 0 153 
153 0 153 153 0 153 153 0 153 
153 0 153 153 0 153 153 0 153 
153 0 153 153 0 153 153 0 153 
153 0 153 153 0 153 153 0 153 
153 0 153 153 0 153 153 0 153 
153 0 153 153 0 153 153 0 153 
153 0 153 153 0 153 153 0 153 
153 0 153 153 0 153 153 0 153 
153 0 153 153 0 153 153 0 153 
153 0 153 153 0 153 153 0 153 
153 0 153 153 0 153 153 0 153 
153 0 153 153 0 153 153 0 153 
153 0 153 153 0 153 153 0 153 
153 0 153 153 0 153 153 0 153 
153 0 153 153 0 153 153 0 153 
153 0 153 153 0 153 153 0 153 
153 0 153 153 0 153 153 0 153 
153 0 153 153 0 153 153 0 153 
153 0 153 153 0 153 153 0 153 
153 0 153 153 0 153 153 0 153 
153 0 153 153 0 153 153 0 153 
153 0 153 153 0 153 153 0 153 
153 0 153 153 0 153 153 0 153 
153 0 153 153 0 153 153 0 153 
153 0 153 153 0 153 153 0 153 
153 0 153 153 0 153 153 0 153 
153 0 153 153 0 153 153 0 153 
153 0 153 153 0 153 153 0 153 
153 0 153 153 0 153 153 0 153 
153 0 153 153 0 153 153 0 153 
153 0 153 153 0 153 153 0 153 
153 0 153 153 0 153 153 0 153 
153 0 153 153 0 153 153 0 153 
153 0 153 153 0 153 153 0 153 
153 0 153 153 0 153 153 0 153 
153 0 153 153 0 153 153 0 153 
153 0 153 153 0 153 153 0 153 
153 0 153 153 0 153 153 0 153 
153 0 153 153 0 153 153 0 153 
153 0 153 153 0 153 153 0 153 
153 0 153 153 0 153 153 0 153 
153 0 153 153 0 153 153 0 153 
153 0 153 153 0 153 153 0 153 
153 0 153 153 0 153 153 0 153 
153 0 153 153 0 153 153 0 153 
153 0 153 153 0 153 153 0 153 
153 0 153 153 0 153 153 0 153 
153 0 153 153 0 153 153 0 153 
153 0 153 153 0 153 153 0 153 
153 0 153 153 0 153 153 0 153 
153 0 153 153 0 153 153 0 153 
153 0 153 153 0 153 153 0 153 
153 0 153 153 0 153 153 0 153 
153 0 153 153 0 153 153 0 153 
153 0 153 153 0 153 153 0 153 
153 0 153 153 0 153 153 0 153 
153 0 153 153 0 153 153 0 153 
153 0 153 153 0 153 153 0 153 
153 0 153 153 0 153 153 0 153 
153 0 153 153 0 153 153 0 153 
153 0 153 153 0 153 153 0 153 
153 0 153 153 0 153 153 0 153 
153 0 153 153 0 153 153 0 153 
153 0 153 153 0 153 153 0 153 
153 0 153 153 0 153 153 0 153 
153 0 153 153 0 153 153 0 153 
153 0 153 153 0 153 153 0 153 
153 0 153 153 0 153 153 0 153 
153 0 153 153 0 153 153 0 153 
153 0 153 153 0 153 153 0 153 
153 0 153 153 0 153 153 0 153 
153 0 153 153 0 153 153 0 153 
153 0 153 153 0 153 153 0 153 
153 0 153 153 0 153 153 0 153 
153 0 153 153 0 153 153 0 153 
153 0 153 153 0 153 153 0 153 
153 0 153 153 0 153 153 0 153 
153 0 153 153 0 153 153 0 153 
153 0 153 153 0 153 153 0 153 
153 0 153 153 0 153 153 0 153 
153 0 153 153 0 153 153 0 153 
153 0 153 153 0 153 153 0 153 
153 0 153 153 0 153 153 0 153 
153 0 153 153 0 153 153 0 153 
153 0 153 153 0 153 153 0 153 
153 0 153 153 0 153 153 0 153 
153 0 153 153 0 153 153 0 153 
153 0 153 153 0 153 153 0 153 
153 0 153 153 0 153 153 0 153 
153 0 153 153 0 153 153 0 153 
153 0 153 153 0 153 153 0 153 
153 0 153 153 0 153 153 0 153 
153 0 153 153 0 153 153 0 153 
153 0 153 153 0 153 153 0 153 
153 0 153 153 0 153 153 0 153 
153 0 153 153 0 153 153 0 153 
153 0 153 153 0 153 153 0 153 
153 0 153 153 0 153 153 0 153 
153 0 153 153 0 153 153 0 153 
153 0 153 153 0 153 153 0 153 
153 0 153 153 0 153 153 0 153 
153 0 153 153 0 153 153 0 153 
153 0 153 153 0 153 153 0 153 
153 0 153 153 0 153 153 0 153 
153 0 153 153 0 153 153 0 153 
153 0 153 153 0 153 153 0 153 
153 0 153 153 0 153 153 0 153 
153 0 153 153 0 153 153 0 153 
153 0 153 153 0 153 153 0 153 
153 0 153 153 0 153 153 0 153 
153 0 153 153 0 153 153 0 153 
153 0 153 153 0 153 153 0 153 
153 0 153 153 0 153 153 0 153 
153 0 153 153 0 153 153 0 153 
153 0 153 153 0 153 153 0 153 
153 0 153 153 0 153 153 0 153 
153 0 153 153 0 153 153 0 153 
153 0 153 153 0 153 153 0 153 
153 0 153 153 0 153 153 0 153 
153 0 153 153 0 153 153 0 153 
153 0 153 153 0 153 153 0 153 
153 0 153 153 0 153 153 0 153 
153 0 153 153 0 153 153 0 153 
153 0 153 153 0 153 153 0 153 
153 0 153 153 0 153 153 0 153 
153 0 153 153 0 153 153 0 153 
153 0 153 153 0 153 153 0 153 