# vtk DataFile Version 2.0
grid description
ASCII
DATASET UNSTRUCTURED_GRID

POINTS 471 double
10.000000 61.000000 0.000000
10.000000 10.000000 0.000000
61.000000 10.000000 0.000000
78.000000 111.000000 0.039216
78.000000 117.000000 0.086275
75.000000 115.000000 0.086275
50.000000 218.000000 0.607843
51.000000 215.000000 0.086275
53.000000 216.000000 0.129412
159.000000 166.000000 0.313725
155.000000 170.000000 0.137255
156.000000 164.000000 0.203922
79.000000 238.000000 0.447059
83.000000 239.000000 0.462745
61.000000 276.000000 0.000000
223.000000 77.000000 0.078431
227.000000 78.000000 0.113725
224.000000 80.000000 0.109804
221.000000 105.000000 0.231373
218.000000 108.000000 0.356863
217.000000 101.000000 0.188235
128.000000 49.000000 0.635294
128.000000 46.000000 0.482353
137.000000 48.000000 0.329412
83.000000 62.000000 0.329412
92.000000 59.000000 0.341176
88.000000 63.000000 0.494118
138.000000 264.000000 0.945098
163.000000 276.000000 0.000000
112.000000 276.000000 0.000000
70.000000 103.000000 0.070588
66.000000 94.000000 0.109804
91.000000 92.000000 0.125490
80.000000 214.000000 0.043137
76.000000 215.000000 0.313725
80.000000 205.000000 0.086275
90.000000 176.000000 0.086275
83.000000 169.000000 0.160784
115.000000 168.000000 0.066667
62.000000 227.000000 0.329412
64.000000 228.000000 0.521569
211.000000 225.000000 0.698039
205.000000 222.000000 0.403922
210.000000 220.000000 0.584314
134.000000 181.000000 0.145098
142.000000 181.000000 0.329412
134.000000 186.000000 0.223529
65.000000 75.000000 0.160784
70.000000 67.000000 0.094118
69.000000 72.000000 0.078431
228.000000 109.000000 0.286275
227.000000 106.000000 0.356863
265.000000 112.000000 0.000000
109.000000 119.000000 0.250980
105.000000 117.000000 0.623529
109.000000 116.000000 0.403922
203.000000 207.000000 0.384314
203.000000 204.000000 0.039216
207.000000 212.000000 0.301961
145.000000 165.000000 0.231373
145.000000 139.000000 0.121569
204.000000 59.000000 0.094118
163.000000 10.000000 0.000000
265.000000 10.000000 0.000000
121.000000 172.000000 0.113725
119.000000 176.000000 0.141176
119.000000 169.000000 0.098039
178.000000 96.000000 0.223529
107.000000 112.000000 0.301961
148.000000 171.000000 0.050980
148.000000 170.000000 0.050980
188.000000 103.000000 0.274510
186.000000 106.000000 0.274510
183.000000 104.000000 0.686275
64.000000 224.000000 0.901961
59.000000 224.000000 0.807843
60.000000 220.000000 0.556863
70.000000 232.000000 0.784314
228.000000 220.000000 0.039216
218.000000 225.000000 0.462745
223.000000 221.000000 0.572549
201.000000 212.000000 0.054902
202.000000 209.000000 0.403922
204.000000 213.000000 0.584314
181.000000 101.000000 0.301961
185.000000 100.000000 0.384314
143.000000 50.000000 0.670588
145.000000 54.000000 0.329412
180.000000 108.000000 0.427451
178.000000 105.000000 0.054902
149.000000 55.000000 0.086275
102.000000 92.000000 0.031373
109.000000 54.000000 0.313725
112.000000 48.000000 0.329412
120.000000 53.000000 0.341176
179.000000 94.000000 0.176471
102.000000 53.000000 0.203922
102.000000 54.000000 0.313725
95.000000 57.000000 0.258824
97.000000 59.000000 0.258824
96.000000 62.000000 0.156863
73.000000 63.000000 0.094118
73.000000 69.000000 0.054902
92.000000 88.000000 0.086275
53.000000 85.000000 0.086275
10.000000 112.000000 0.000000
98.000000 104.000000 0.294118
93.000000 104.000000 0.466667
94.000000 102.000000 0.015686
148.000000 174.000000 0.078431
146.000000 179.000000 0.274510
135.000000 175.000000 0.054902
174.000000 177.000000 0.121569
164.000000 166.000000 0.043137
191.000000 175.000000 0.094118
162.000000 169.000000 0.129412
173.000000 180.000000 0.188235
157.000000 176.000000 0.074510
10.000000 163.000000 0.000000
49.000000 116.000000 0.223529
10.000000 276.000000 0.000000
52.000000 222.000000 0.203922
72.000000 225.000000 0.329412
72.000000 218.000000 0.286275
76.000000 221.000000 0.596078
265.000000 163.000000 0.000000
205.000000 168.000000 0.035294
211.000000 157.000000 0.231373
191.000000 65.000000 0.439216
193.000000 67.000000 0.145098
190.000000 65.000000 0.250980
129.000000 44.000000 0.403922
135.000000 41.000000 0.517647
224.000000 72.000000 0.078431
105.000000 180.000000 0.070588
136.000000 139.000000 0.109804
134.000000 137.000000 0.137255
143.000000 136.000000 0.054902
84.000000 175.000000 0.176471
82.000000 173.000000 0.341176
134.000000 187.000000 0.145098
128.000000 195.000000 0.058824
71.000000 162.000000 0.250980
73.000000 161.000000 0.203922
74.000000 166.000000 0.156863
89.000000 180.000000 0.156863
93.000000 180.000000 0.145098
94.000000 185.000000 0.156863
214.000000 149.000000 0.341176
209.000000 149.000000 0.070588
213.000000 146.000000 0.250980
146.000000 137.000000 0.137255
129.000000 195.000000 0.125490
81.000000 235.000000 0.772549
82.000000 235.000000 0.427451
142.000000 188.000000 0.231373
68.000000 223.000000 0.760784
71.000000 228.000000 0.341176
75.000000 230.000000 0.752941
60.000000 218.000000 0.066667
56.000000 219.000000 0.717647
70.000000 154.000000 0.231373
67.000000 155.000000 0.313725
69.000000 152.000000 0.231373
10.000000 214.000000 0.000000
200.000000 232.000000 0.078431
203.000000 219.000000 0.074510
204.000000 233.000000 0.341176
202.000000 232.000000 0.384314
207.000000 227.000000 0.894118
205.000000 162.000000 0.376471
207.000000 163.000000 0.258824
202.000000 235.000000 0.098039
265.000000 276.000000 0.000000
215.000000 222.000000 0.729412
214.000000 228.000000 0.286275
219.000000 219.000000 0.878431
220.000000 216.000000 0.462745
218.000000 71.000000 0.125490
209.000000 128.000000 0.070588
210.000000 130.000000 0.109804
210.000000 137.000000 0.054902
131.000000 139.000000 0.086275
228.000000 213.000000 0.329412
230.000000 216.000000 0.662745
227.000000 214.000000 0.607843
205.000000 221.000000 0.403922
167.000000 51.000000 0.086275
180.000000 109.000000 0.188235
178.000000 107.000000 0.258824
105.000000 108.000000 0.592157
98.000000 115.000000 0.101961
120.000000 48.000000 0.427451
112.000000 10.000000 0.000000
155.000000 51.000000 0.035294
204.000000 62.000000 0.137255
200.000000 60.000000 0.376471
204.000000 60.000000 0.141176
145.000000 42.000000 0.329412
151.000000 50.000000 0.411765
157.000000 43.000000 0.427451
108.000000 54.000000 0.341176
109.000000 49.000000 0.258824
110.000000 49.000000 0.341176
89.000000 66.000000 0.250980
94.000000 63.000000 0.250980
59.000000 81.000000 0.070588
62.000000 76.000000 0.078431
62.000000 79.000000 0.070588
84.000000 66.000000 0.156863
135.000000 191.000000 0.125490
66.000000 221.000000 0.572549
200.000000 204.000000 0.258824
199.000000 199.000000 0.086275
223.000000 213.000000 0.043137
227.000000 212.000000 0.070588
134.000000 169.000000 0.176471
133.000000 175.000000 0.188235
131.000000 169.000000 0.109804
59.000000 121.000000 0.447059
63.000000 130.000000 0.521569
58.000000 124.000000 0.341176
65.000000 78.000000 0.109804
68.000000 158.000000 0.203922
75.000000 157.000000 0.109804
50.000000 114.000000 0.356863
57.000000 89.000000 0.188235
53.000000 120.000000 0.137255
60.000000 130.000000 0.537255
61.000000 138.000000 0.125490
70.000000 124.000000 0.121569
60.000000 117.000000 0.121569
76.000000 165.000000 0.160784
66.000000 220.000000 0.223529
223.000000 88.000000 0.156863
223.000000 90.000000 0.188235
220.000000 89.000000 0.101961
211.000000 66.000000 0.125490
214.000000 104.000000 0.058824
214.000000 97.000000 0.058824
205.000000 159.000000 0.086275
219.000000 129.000000 0.274510
213.000000 129.000000 0.121569
150.000000 50.000000 0.521569
147.000000 50.000000 0.733333
147.000000 46.000000 0.760784
165.000000 44.000000 0.301961
162.000000 48.000000 0.447059
150.000000 44.000000 0.572549
125.000000 164.000000 0.203922
132.000000 140.000000 0.054902
74.000000 114.000000 0.050980
75.000000 109.000000 0.101961
85.000000 205.000000 0.101961
88.000000 196.000000 0.137255
121.000000 178.000000 0.121569
103.000000 190.000000 0.141176
129.000000 197.000000 0.050980
96.000000 196.000000 0.066667
142.000000 252.000000 0.074510
134.000000 249.000000 0.329412
146.000000 243.000000 0.074510
182.000000 184.000000 0.274510
181.000000 184.000000 0.250980
178.000000 179.000000 0.156863
80.000000 170.000000 0.329412
75.000000 156.000000 0.086275
215.000000 102.000000 0.137255
159.000000 165.000000 0.156863
265.000000 214.000000 0.000000
214.000000 219.000000 0.670588
126.000000 169.000000 0.145098
120.000000 165.000000 0.074510
100.000000 183.000000 0.231373
130.000000 178.000000 0.078431
138.000000 191.000000 0.109804
143.000000 194.000000 0.141176
140.000000 198.000000 0.231373
119.000000 241.000000 0.329412
120.000000 246.000000 0.411765
85.000000 237.000000 0.145098
121.000000 250.000000 0.156863
81.000000 231.000000 0.007843
78.000000 229.000000 0.313725
78.000000 220.000000 0.078431
55.000000 223.000000 0.482353
148.000000 232.000000 0.160784
145.000000 236.000000 0.074510
145.000000 227.000000 0.050980
201.000000 167.000000 0.274510
202.000000 170.000000 0.094118
194.000000 177.000000 0.039216
192.000000 191.000000 0.086275
140.000000 203.000000 0.058824
149.000000 193.000000 0.137255
148.000000 225.000000 0.098039
147.000000 185.000000 0.184314
206.000000 217.000000 0.784314
209.000000 215.000000 0.376471
206.000000 233.000000 0.125490
155.000000 247.000000 0.329412
157.000000 242.000000 0.188235
161.000000 244.000000 0.286275
231.000000 213.000000 0.274510
265.000000 61.000000 0.000000
204.000000 63.000000 0.058824
176.000000 53.000000 0.356863
190.000000 58.000000 0.482353
185.000000 54.000000 0.341176
193.000000 57.000000 0.086275
197.000000 63.000000 0.411765
186.000000 59.000000 0.286275
122.000000 48.000000 0.376471
174.000000 48.000000 0.403922
160.000000 43.000000 0.356863
106.000000 52.000000 0.384314
76.000000 62.000000 0.160784
77.000000 65.000000 0.070588
52.000000 113.000000 0.517647
55.000000 113.000000 0.482353
198.000000 200.000000 0.250980
185.000000 183.000000 0.403922
189.000000 183.000000 0.223529
187.000000 190.000000 0.109804
188.000000 177.000000 0.101961
[...]
CELL_DATA 922
SCALARS scalars float 1
LOOKUP_TABLE lut
0.0000000000
0.0010857763
0.0021715527
0.0032573290
0.0043431053
0.0054288817
0.0065146580
0.0076004343
0.0086862106
0.0097719870
0.0108577633
0.0119435396
0.0130293160
0.0141150923
0.0152008686
0.0162866450
0.0173724213
0.0184581976
0.0195439739
0.0206297503
0.0217155266
0.0228013029
0.0238870793
0.0249728556
0.0260586319
0.0271444083
0.0282301846
0.0293159609
0.0304017372
0.0314875136
0.0325732899
0.0336590662
0.0347448426
0.0358306189
0.0369163952
0.0380021716
0.0390879479
0.0401737242
0.0412595005
0.0423452769
0.0434310532
0.0445168295
0.0456026059
0.0466883822
0.0477741585
0.0488599349
0.0499457112
0.0510314875
0.0521172638
0.0532030402
0.0542888165
0.0553745928
0.0564603692
0.0575461455
0.0586319218
0.0597176982
0.0608034745
0.0618892508
0.0629750271
0.0640608035
0.0651465798
0.0662323561
0.0673181325
0.0684039088
0.0694896851
0.0705754615
0.0716612378
0.0727470141
0.0738327904
0.0749185668
0.0760043431
0.0770901194
0.0781758958
0.0792616721
0.0803474484
0.0814332248
0.0825190011
0.0836047774
0.0846905537
0.0857763301
0.0868621064
0.0879478827
0.0890336591
0.0901194354
0.0912052117
0.0922909881
0.0933767644
0.0944625407
0.0955483170
0.0966340934
0.0977198697
0.0988056460
0.0998914224
0.1009771987
0.1020629750
0.1031487514
0.1042345277
0.1053203040
0.1064060803
0.1074918567
0.1085776330
0.1096634093
0.1107491857
0.1118349620
0.1129207383
0.1140065147
0.1150922910
0.1161780673
0.1172638436
0.1183496200
0.1194353963
0.1205211726
0.1216069490
0.1226927253
0.1237785016
0.1248642780
0.1259500543
0.1270358306
0.1281216069
0.1292073833
0.1302931596
0.1313789359
0.1324647123
0.1335504886
0.1346362649
0.1357220413
0.1368078176
0.1378935939
0.1389793702
0.1400651466
0.1411509229
0.1422366992
0.1433224756
0.1444082519
0.1454940282
0.1465798046
0.1476655809
0.1487513572
0.1498371336
0.1509229099
0.1520086862
0.1530944625
0.1541802389
0.1552660152
0.1563517915
0.1574375679
0.1585233442
0.1596091205
0.1606948969
0.1617806732
0.1628664495
0.1639522258
0.1650380022
0.1661237785
0.1672095548
0.1682953312
0.1693811075
0.1704668838
0.1715526602
0.1726384365
0.1737242128
0.1748099891
0.1758957655
0.1769815418
0.1780673181
0.1791530945
0.1802388708
0.1813246471
0.1824104235
0.1834961998
0.1845819761
0.1856677524
0.1867535288
0.1878393051
0.1889250814
0.1900108578
0.1910966341
0.1921824104
0.1932681868
0.1943539631
0.1954397394
0.1965255157
0.1976112921
0.1986970684
0.1997828447
0.2008686211
0.2019543974
0.2030401737
0.2041259501
0.2052117264
0.2062975027
0.2073832790
0.2084690554
0.2095548317
0.2106406080
0.2117263844
0.2128121607
0.2138979370
0.2149837134
0.2160694897
0.2171552660
0.2182410423
0.2193268187
0.2204125950
0.2214983713
0.2225841477
0.2236699240
0.2247557003
0.2258414767
0.2269272530
0.2280130293
0.2290988056
0.2301845820
0.2312703583
0.2323561346
0.2334419110
0.2345276873
0.2356134636
0.2366992400
0.2377850163
0.2388707926
0.2399565689
0.2410423453
0.2421281216
0.2432138979
0.2442996743
0.2453854506
0.2464712269
0.2475570033
0.2486427796
0.2497285559
0.2508143322
0.2519001086
0.2529858849
0.2540716612
0.2551574376
0.2562432139
0.2573289902
0.2584147666
0.2595005429
0.2605863192
0.2616720955
0.2627578719
0.2638436482
0.2649294245
0.2660152009
0.2671009772
0.2681867535
0.2692725299
0.2703583062
0.2714440825
0.2725298588
0.2736156352
0.2747014115
0.2757871878
0.2768729642
0.2779587405
0.2790445168
0.2801302932
0.2812160695
0.2823018458
0.2833876221
0.2844733985
0.2855591748
0.2866449511
0.2877307275
0.2888165038
0.2899022801
0.2909880565
0.2920738328
0.2931596091
0.2942453855
0.2953311618
0.2964169381
0.2975027144
0.2985884908
0.2996742671
0.3007600434
0.3018458198
0.3029315961
0.3040173724
0.3051031488
0.3061889251
0.3072747014
0.3083604777
0.3094462541
0.3105320304
0.3116178067
0.3127035831
0.3137893594
0.3148751357
0.3159609121
0.3170466884
0.3181324647
0.3192182410
0.3203040174
0.3213897937
0.3224755700
0.3235613464
0.3246471227
0.3257328990
0.3268186754
0.3279044517
0.3289902280
0.3300760043
0.3311617807
0.3322475570
0.3333333333
0.3344191097
0.3355048860
0.3365906623
0.3376764387
0.3387622150
0.3398479913
0.3409337676
0.3420195440
0.3431053203
0.3441910966
0.3452768730
0.3463626493
0.3474484256
0.3485342020
0.3496199783
0.3507057546
0.3517915309
0.3528773073
0.3539630836
0.3550488599
0.3561346363
0.3572204126
0.3583061889
0.3593919653
0.3604777416
0.3615635179
0.3626492942
0.3637350706
0.3648208469
0.3659066232
0.3669923996
0.3680781759
0.3691639522
0.3702497286
0.3713355049
0.3724212812
0.3735070575
0.3745928339
0.3756786102
0.3767643865
0.3778501629
0.3789359392
0.3800217155
0.3811074919
0.3821932682
0.3832790445
0.3843648208
0.3854505972
0.3865363735
0.3876221498
0.3887079262
0.3897937025
0.3908794788
0.3919652552
0.3930510315
0.3941368078
0.3952225841
0.3963083605
0.3973941368
0.3984799131
0.3995656895
0.4006514658
0.4017372421
0.4028230185
0.4039087948
0.4049945711
0.4060803474
0.4071661238
0.4082519001
0.4093376764
0.4104234528
0.4115092291
0.4125950054
0.4136807818
0.4147665581
0.4158523344
0.4169381107
0.4180238871
0.4191096634
0.4201954397
0.4212812161
0.4223669924
0.4234527687
0.4245385451
0.4256243214
0.4267100977
0.4277958740
0.4288816504
0.4299674267
0.4310532030
0.4321389794
0.4332247557
0.4343105320
0.4353963084
0.4364820847
0.4375678610
0.4386536374
0.4397394137
0.4408251900
0.4419109663
0.4429967427
0.4440825190
0.4451682953
0.4462540717
0.4473398480
0.4484256243
0.4495114007
0.4505971770
0.4516829533
0.4527687296
0.4538545060
0.4549402823
0.4560260586
0.4571118350
0.4581976113
0.4592833876
0.4603691640
0.4614549403
0.4625407166
0.4636264929
0.4647122693
0.4657980456
0.4668838219
0.4679695983
0.4690553746
0.4701411509
0.4712269273
0.4723127036
0.4733984799
0.4744842562
0.4755700326
0.4766558089
0.4777415852
0.4788273616
0.4799131379
0.4809989142
0.4820846906
0.4831704669
0.4842562432
0.4853420195
0.4864277959
0.4875135722
0.4885993485
0.4896851249
0.4907709012
0.4918566775
0.4929424539
0.4940282302
0.4951140065
0.4961997828
0.4972855592
0.4983713355
0.4994571118
0.5005428882
0.5016286645
0.5027144408
0.5038002172
0.5048859935
0.5059717698
0.5070575461
0.5081433225
0.5092290988
0.5103148751
0.5114006515
0.5124864278
0.5135722041
0.5146579805
0.5157437568
0.5168295331
0.5179153094
0.5190010858
0.5200868621
0.5211726384
0.5222584148
0.5233441911
0.5244299674
0.5255157438
0.5266015201
0.5276872964
0.5287730727
0.5298588491
0.5309446254
0.5320304017
0.5331161781
0.5342019544
0.5352877307
0.5363735071
0.5374592834
0.5385450597
0.5396308360
0.5407166124
0.5418023887
0.5428881650
0.5439739414
0.5450597177
0.5461454940
0.5472312704
0.5483170467
0.5494028230
0.5504885993
0.5515743757
0.5526601520
0.5537459283
0.5548317047
0.5559174810
0.5570032573
0.5580890337
0.5591748100
0.5602605863
0.5613463626
0.5624321390
0.5635179153
0.5646036916
0.5656894680
0.5667752443
0.5678610206
0.5689467970
0.5700325733
0.5711183496
0.5722041260
0.5732899023
0.5743756786
0.5754614549
0.5765472313
0.5776330076
0.5787187839
0.5798045603
0.5808903366
0.5819761129
0.5830618893
0.5841476656
0.5852334419
0.5863192182
0.5874049946
0.5884907709
0.5895765472
0.5906623236
0.5917480999
0.5928338762
0.5939196526
0.5950054289
0.5960912052
0.5971769815
0.5982627579
0.5993485342
0.6004343105
0.6015200869
0.6026058632
0.6036916395
0.6047774159
0.6058631922
0.6069489685
0.6080347448
0.6091205212
0.6102062975
0.6112920738
0.6123778502
0.6134636265
0.6145494028
0.6156351792
0.6167209555
0.6178067318
0.6188925081
0.6199782845
0.6210640608
0.6221498371
0.6232356135
0.6243213898
0.6254071661
0.6264929425
0.6275787188
0.6286644951
0.6297502714
0.6308360478
0.6319218241
0.6330076004
0.6340933768
0.6351791531
0.6362649294
0.6373507058
0.6384364821
0.6395222584
0.6406080347
0.6416938111
0.6427795874
0.6438653637
0.6449511401
0.6460369164
0.6471226927
0.6482084691
0.6492942454
0.6503800217
0.6514657980
0.6525515744
0.6536373507
0.6547231270
0.6558089034
0.6568946797
0.6579804560
0.6590662324
0.6601520087
0.6612377850
0.6623235613
0.6634093377
0.6644951140
0.6655808903
0.6666666667
0.6677524430
0.6688382193
0.6699239957
0.6710097720
0.6720955483
0.6731813246
0.6742671010
0.6753528773
0.6764386536
0.6775244300
0.6786102063
0.6796959826
0.6807817590
0.6818675353
0.6829533116
0.6840390879
0.6851248643
0.6862106406
0.6872964169
0.6883821933
0.6894679696
0.6905537459
0.6916395223
0.6927252986
0.6938110749
0.6948968512
0.6959826276
0.6970684039
0.6981541802
0.6992399566
0.7003257329
0.7014115092
0.7024972856
0.7035830619
0.7046688382
0.7057546145
0.7068403909
0.7079261672
0.7090119435
0.7100977199
0.7111834962
0.7122692725
0.7133550489
0.7144408252
0.7155266015
0.7166123779
0.7176981542
0.7187839305
0.7198697068
0.7209554832
0.7220412595
0.7231270358
0.7242128122
0.7252985885
0.7263843648
0.7274701412
0.7285559175
0.7296416938
0.7307274701
0.7318132465
0.7328990228
0.7339847991
0.7350705755
0.7361563518
0.7372421281
0.7383279045
0.7394136808
0.7404994571
0.7415852334
0.7426710098
0.7437567861
0.7448425624
0.7459283388
0.7470141151
0.7480998914
0.7491856678
0.7502714441
0.7513572204
0.7524429967
0.7535287731
0.7546145494
0.7557003257
0.7567861021
0.7578718784
0.7589576547
0.7600434311
0.7611292074
0.7622149837
0.7633007600
0.7643865364
0.7654723127
0.7665580890
0.7676438654
0.7687296417
0.7698154180
0.7709011944
0.7719869707
0.7730727470
0.7741585233
0.7752442997
0.7763300760
0.7774158523
0.7785016287
0.7795874050
0.7806731813
0.7817589577
0.7828447340
0.7839305103
0.7850162866
0.7861020630
0.7871878393
0.7882736156
0.7893593920
0.7904451683
0.7915309446
0.7926167210
0.7937024973
0.7947882736
0.7958740499
0.7969598263
0.7980456026
0.7991313789
0.8002171553
0.8013029316
0.8023887079
0.8034744843
0.8045602606
0.8056460369
0.8067318132
0.8078175896
0.8089033659
0.8099891422
0.8110749186
0.8121606949
0.8132464712
0.8143322476
0.8154180239
0.8165038002
0.8175895765
0.8186753529
0.8197611292
0.8208469055
0.8219326819
0.8230184582
0.8241042345
0.8251900109
0.8262757872
0.8273615635
0.8284473398
0.8295331162
0.8306188925
0.8317046688
0.8327904452
0.8338762215
0.8349619978
0.8360477742
0.8371335505
0.8382193268
0.8393051031
0.8403908795
0.8414766558
0.8425624321
0.8436482085
0.8447339848
0.8458197611
0.8469055375
0.8479913138
0.8490770901
0.8501628664
0.8512486428
0.8523344191
0.8534201954
0.8545059718
0.8555917481
0.8566775244
0.8577633008
0.8588490771
0.8599348534
0.8610206298
0.8621064061
0.8631921824
0.8642779587
0.8653637351
0.8664495114
0.8675352877
0.8686210641
0.8697068404
0.8707926167
0.8718783931
0.8729641694
0.8740499457
0.8751357220
0.8762214984
0.8773072747
0.8783930510
0.8794788274
0.8805646037
0.8816503800
0.8827361564
0.8838219327
0.8849077090
0.8859934853
0.8870792617
0.8881650380
0.8892508143
0.8903365907
0.8914223670
0.8925081433
0.8935939197
0.8946796960
0.8957654723
0.8968512486
0.8979370250
0.8990228013
0.9001085776
0.9011943540
0.9022801303
0.9033659066
0.9044516830
0.9055374593
0.9066232356
0.9077090119
0.9087947883
0.9098805646
0.9109663409
0.9120521173
0.9131378936
0.9142236699
0.9153094463
0.9163952226
0.9174809989
0.9185667752
0.9196525516
0.9207383279
0.9218241042
0.9229098806
0.9239956569
0.9250814332
0.9261672096
0.9272529859
0.9283387622
0.9294245385
0.9305103149
0.9315960912
0.9326818675
0.9337676439
0.9348534202
0.9359391965
0.9370249729
0.9381107492
0.9391965255
0.9402823018
0.9413680782
0.9424538545
0.9435396308
0.9446254072
0.9457111835
0.9467969598
0.9478827362
0.9489685125
0.9500542888
0.9511400651
0.9522258415
0.9533116178
0.9543973941
0.9554831705
0.9565689468
0.9576547231
0.9587404995
0.9598262758
0.9609120521
0.9619978284
0.9630836048
0.9641693811
0.9652551574
0.9663409338
0.9674267101
0.9685124864
0.9695982628
0.9706840391
0.9717698154
0.9728555917
0.9739413681
0.9750271444
0.9761129207
0.9771986971
0.9782844734
0.9793702497
0.9804560261
0.9815418024
0.9826275787
0.9837133550
0.9847991314
0.9858849077
0.9869706840
0.9880564604
0.9891422367
0.9902280130
0.9913137894
0.9923995657
0.9934853420
0.9945711183
0.9956568947
0.9967426710
0.9978284473
0.9989142237
1.0000000000

LOOKUP_TABLE lut 922
0.00 0.00 0.00 1.0
0.10 0.10 0.10 1.0
0.38 0.38 0.38 1.0
0.30 0.30 0.30 1.0
0.02 0.02 0.02 1.0
0.24 0.24 0.24 1.0
0.20 0.20 0.20 1.0
0.63 0.63 0.63 1.0
0.42 0.42 0.42 1.0
0.00 0.00 0.00 1.0
0.02 0.02 0.02 1.0
0.14 0.14 0.14 1.0
0.01 0.01 0.01 1.0
0.01 0.01 0.01 1.0
0.48 0.48 0.48 1.0
0.18 0.18 0.18 1.0
0.12 0.12 0.12 1.0
0.04 0.04 0.04 1.0
0.56 0.56 0.56 1.0
0.22 0.22 0.22 1.0
0.04 0.04 0.04 1.0
0.00 0.00 0.00 1.0
0.09 0.09 0.09 1.0
0.01 0.01 0.01 1.0
0.04 0.04 0.04 1.0
0.58 0.58 0.58 1.0
0.91 0.91 0.91 1.0
0.04 0.04 0.04 1.0
0.28 0.28 0.28 1.0
0.34 0.34 0.34 1.0
0.48 0.48 0.48 1.0
0.38 0.38 0.38 1.0
0.46 0.46 0.46 1.0
0.01 0.01 0.01 1.0
0.45 0.45 0.45 1.0
0.01 0.01 0.01 1.0
0.26 0.26 0.26 1.0
0.33 0.33 0.33 1.0
0.00 0.00 0.00 1.0
0.01 0.01 0.01 1.0
0.00 0.00 0.00 1.0
0.25 0.25 0.25 1.0
0.04 0.04 0.04 1.0
0.10 0.10 0.10 1.0
0.02 0.02 0.02 1.0
0.09 0.09 0.09 1.0
0.02 0.02 0.02 1.0
0.00 0.00 0.00 1.0
0.00 0.00 0.00 1.0
0.70 0.70 0.70 1.0
0.01 0.01 0.01 1.0
0.29 0.29 0.29 1.0
0.67 0.67 0.67 1.0
0.00 0.00 0.00 1.0
0.01 0.01 0.01 1.0
0.07 0.07 0.07 1.0
0.02 0.02 0.02 1.0
0.11 0.11 0.11 1.0
0.25 0.25 0.25 1.0
0.24 0.24 0.24 1.0
0.25 0.25 0.25 1.0
0.03 0.03 0.03 1.0
0.11 0.11 0.11 1.0
0.23 0.23 0.23 1.0
0.66 0.66 0.66 1.0
0.20 0.20 0.20 1.0
0.36 0.36 0.36 1.0
0.90 0.90 0.90 1.0
0.63 0.63 0.63 1.0
0.01 0.01 0.01 1.0
0.70 0.70 0.70 1.0
0.30 0.30 0.30 1.0
0.06 0.06 0.06 1.0
0.40 0.40 0.40 1.0
0.09 0.09 0.09 1.0
0.76 0.76 0.76 1.0
0.24 0.24 0.24 1.0
0.00 0.00 0.00 1.0
0.73 0.73 0.73 1.0
0.00 0.00 0.00 1.0
0.80 0.80 0.80 1.0
0.83 0.83 0.83 1.0
0.14 0.14 0.14 1.0
0.03 0.03 0.03 1.0
0.07 0.07 0.07 1.0
0.02 0.02 0.02 1.0
0.67 0.67 0.67 1.0
0.23 0.23 0.23 1.0
0.00 0.00 0.00 1.0
0.00 0.00 0.00 1.0
0.00 0.00 0.00 1.0
0.06 0.06 0.06 1.0
0.01 0.01 0.01 1.0
0.81 0.81 0.81 1.0
0.29 0.29 0.29 1.0
0.05 0.05 0.05 1.0
0.02 0.02 0.02 1.0
0.19 0.19 0.19 1.0
0.03 0.03 0.03 1.0
0.52 0.52 0.52 1.0
0.17 0.17 0.17 1.0
0.03 0.03 0.03 1.0
0.42 0.42 0.42 1.0
0.03 0.03 0.03 1.0
0.03 0.03 0.03 1.0
0.34 0.34 0.34 1.0
0.10 0.10 0.10 1.0
0.05 0.05 0.05 1.0
0.16 0.16 0.16 1.0
0.10 0.10 0.10 1.0
0.01 0.01 0.01 1.0
0.77 0.77 0.77 1.0
0.11 0.11 0.11 1.0
0.17 0.17 0.17 1.0
0.16 0.16 0.16 1.0
0.32 0.32 0.32 1.0
0.34 0.34 0.34 1.0
0.01 0.01 0.01 1.0
0.21 0.21 0.21 1.0
0.03 0.03 0.03 1.0
0.14 0.14 0.14 1.0
0.05 0.05 0.05 1.0
0.02 0.02 0.02 1.0
0.15 0.15 0.15 1.0
0.78 0.78 0.78 1.0
0.25 0.25 0.25 1.0
0.19 0.19 0.19 1.0
0.13 0.13 0.13 1.0
0.03 0.03 0.03 1.0
0.27 0.27 0.27 1.0
0.31 0.31 0.31 1.0
0.29 0.29 0.29 1.0
0.00 0.00 0.00 1.0
0.13 0.13 0.13 1.0
0.75 0.75 0.75 1.0
0.44 0.44 0.44 1.0
0.54 0.54 0.54 1.0
0.09 0.09 0.09 1.0
0.02 0.02 0.02 1.0
0.11 0.11 0.11 1.0
0.14 0.14 0.14 1.0
0.03 0.03 0.03 1.0
0.11 0.11 0.11 1.0
0.03 0.03 0.03 1.0
0.02 0.02 0.02 1.0
0.89 0.89 0.89 1.0
0.04 0.04 0.04 1.0
0.33 0.33 0.33 1.0
0.39 0.39 0.39 1.0
0.01 0.01 0.01 1.0
0.27 0.27 0.27 1.0
0.02 0.02 0.02 1.0
0.18 0.18 0.18 1.0
0.04 0.04 0.04 1.0
0.16 0.16 0.16 1.0
0.02 0.02 0.02 1.0
0.03 0.03 0.03 1.0
0.75 0.75 0.75 1.0
0.24 0.24 0.24 1.0
0.03 0.03 0.03 1.0
0.01 0.01 0.01 1.0
0.08 0.08 0.08 1.0
0.06 0.06 0.06 1.0
0.16 0.16 0.16 1.0
0.20 0.20 0.20 1.0
0.05 0.05 0.05 1.0
0.06 0.06 0.06 1.0
0.05 0.05 0.05 1.0
0.35 0.35 0.35 1.0
0.55 0.55 0.55 1.0
0.49 0.49 0.49 1.0
0.70 0.70 0.70 1.0
0.09 0.09 0.09 1.0
0.83 0.83 0.83 1.0
0.02 0.02 0.02 1.0
0.19 0.19 0.19 1.0
0.00 0.00 0.00 1.0
0.01 0.01 0.01 1.0
0.00 0.00 0.00 1.0
0.00 0.00 0.00 1.0
0.69 0.69 0.69 1.0
0.03 0.03 0.03 1.0
0.56 0.56 0.56 1.0
0.10 0.10 0.10 1.0
0.14 0.14 0.14 1.0
0.21 0.21 0.21 1.0
0.01 0.01 0.01 1.0
0.63 0.63 0.63 1.0
0.02 0.02 0.02 1.0
0.63 0.63 0.63 1.0
0.01 0.01 0.01 1.0
0.35 0.35 0.35 1.0
0.00 0.00 0.00 1.0
0.64 0.64 0.64 1.0
0.68 0.68 0.68 1.0
0.87 0.87 0.87 1.0
0.01 0.01 0.01 1.0
0.23 0.23 0.23 1.0
0.30 0.30 0.30 1.0
0.65 0.65 0.65 1.0
0.00 0.00 0.00 1.0
0.00 0.00 0.00 1.0
0.00 0.00 0.00 1.0
0.15 0.15 0.15 1.0
0.01 0.01 0.01 1.0
0.25 0.25 0.25 1.0
0.11 0.11 0.11 1.0
0.12 0.12 0.12 1.0
0.00 0.00 0.00 1.0
0.14 0.14 0.14 1.0
0.02 0.02 0.02 1.0
0.15 0.15 0.15 1.0
0.44 0.44 0.44 1.0
0.81 0.81 0.81 1.0
0.06 0.06 0.06 1.0
0.49 0.49 0.49 1.0
0.58 0.58 0.58 1.0
0.17 0.17 0.17 1.0
0.36 0.36 0.36 1.0
0.31 0.31 0.31 1.0
0.48 0.48 0.48 1.0
0.01 0.01 0.01 1.0
0.02 0.02 0.02 1.0
0.56 0.56 0.56 1.0
0.31 0.31 0.31 1.0
0.29 0.29 0.29 1.0
0.17 0.17 0.17 1.0
0.31 0.31 0.31 1.0
0.46 0.46 0.46 1.0
0.01 0.01 0.01 1.0
0.44 0.44 0.44 1.0
0.52 0.52 0.52 1.0
0.02 0.02 0.02 1.0
0.01 0.01 0.01 1.0
0.03 0.03 0.03 1.0
0.40 0.40 0.40 1.0
0.09 0.09 0.09 1.0
0.35 0.35 0.35 1.0
0.13 0.13 0.13 1.0
0.00 0.00 0.00 1.0
0.57 0.57 0.57 1.0
0.01 0.01 0.01 1.0
0.48 0.48 0.48 1.0
0.84 0.84 0.84 1.0
0.18 0.18 0.18 1.0
0.01 0.01 0.01 1.0
0.35 0.35 0.35 1.0
0.04 0.04 0.04 1.0
0.01 0.01 0.01 1.0
0.03 0.03 0.03 1.0
0.02 0.02 0.02 1.0
0.16 0.16 0.16 1.0
0.12 0.12 0.12 1.0
0.02 0.02 0.02 1.0
0.20 0.20 0.20 1.0
0.12 0.12 0.12 1.0
0.06 0.06 0.06 1.0
0.00 0.00 0.00 1.0
0.31 0.31 0.31 1.0
0.46 0.46 0.46 1.0
0.12 0.12 0.12 1.0
0.05 0.05 0.05 1.0
0.60 0.60 0.60 1.0
0.02 0.02 0.02 1.0
0.15 0.15 0.15 1.0
0.26 0.26 0.26 1.0
0.06 0.06 0.06 1.0
0.03 0.03 0.03 1.0
0.02 0.02 0.02 1.0
0.00 0.00 0.00 1.0
0.14 0.14 0.14 1.0
0.01 0.01 0.01 1.0
0.20 0.20 0.20 1.0
0.09 0.09 0.09 1.0
0.58 0.58 0.58 1.0
0.83 0.83 0.83 1.0
0.77 0.77 0.77 1.0
0.81 0.81 0.81 1.0
0.01 0.01 0.01 1.0
0.10 0.10 0.10 1.0
0.37 0.37 0.37 1.0
0.01 0.01 0.01 1.0
0.53 0.53 0.53 1.0
0.51 0.51 0.51 1.0
0.06 0.06 0.06 1.0
0.02 0.02 0.02 1.0
0.08 0.08 0.08 1.0
0.23 0.23 0.23 1.0
0.01 0.01 0.01 1.0
0.62 0.62 0.62 1.0
0.57 0.57 0.57 1.0
0.40 0.40 0.40 1.0
0.80 0.80 0.80 1.0
0.48 0.48 0.48 1.0
0.04 0.04 0.04 1.0
0.03 0.03 0.03 1.0
0.04 0.04 0.04 1.0
0.00 0.00 0.00 1.0
0.13 0.13 0.13 1.0
0.19 0.19 0.19 1.0
0.60 0.60 0.60 1.0
0.09 0.09 0.09 1.0
0.57 0.57 0.57 1.0
0.14 0.14 0.14 1.0
0.12 0.12 0.12 1.0
0.15 0.15 0.15 1.0
0.37 0.37 0.37 1.0
0.10 0.10 0.10 1.0
0.03 0.03 0.03 1.0
0.12 0.12 0.12 1.0
0.46 0.46 0.46 1.0
0.43 0.43 0.43 1.0
0.39 0.39 0.39 1.0
0.25 0.25 0.25 1.0
0.14 0.14 0.14 1.0
0.05 0.05 0.05 1.0
0.40 0.40 0.40 1.0
0.01 0.01 0.01 1.0
0.02 0.02 0.02 1.0
0.36 0.36 0.36 1.0
0.06 0.06 0.06 1.0
0.09 0.09 0.09 1.0
0.22 0.22 0.22 1.0
0.13 0.13 0.13 1.0
0.19 0.19 0.19 1.0
0.28 0.28 0.28 1.0
0.14 0.14 0.14 1.0
0.24 0.24 0.24 1.0
0.51 0.51 0.51 1.0
0.70 0.70 0.70 1.0
0.69 0.69 0.69 1.0
0.00 0.00 0.00 1.0
0.06 0.06 0.06 1.0
0.30 0.30 0.30 1.0
0.06 0.06 0.06 1.0
0.11 0.11 0.11 1.0
0.03 0.03 0.03 1.0
0.13 0.13 0.13 1.0
0.05 0.05 0.05 1.0
0.02 0.02 0.02 1.0
0.20 0.20 0.20 1.0
0.26 0.26 0.26 1.0
0.07 0.07 0.07 1.0
0.08 0.08 0.08 1.0
0.13 0.13 0.13 1.0
0.19 0.19 0.19 1.0
0.03 0.03 0.03 1.0
0.02 0.02 0.02 1.0
0.13 0.13 0.13 1.0
0.10 0.10 0.10 1.0
0.06 0.06 0.06 1.0
0.25 0.25 0.25 1.0
0.00 0.00 0.00 1.0
0.75 0.75 0.75 1.0
0.59 0.59 0.59 1.0
0.01 0.01 0.01 1.0
0.82 0.82 0.82 1.0
0.67 0.67 0.67 1.0
0.77 0.77 0.77 1.0
0.23 0.23 0.23 1.0
0.49 0.49 0.49 1.0
0.37 0.37 0.37 1.0
0.26 0.26 0.26 1.0
0.33 0.33 0.33 1.0
0.22 0.22 0.22 1.0
0.23 0.23 0.23 1.0
0.29 0.29 0.29 1.0
0.00 0.00 0.00 1.0
0.01 0.01 0.01 1.0
0.46 0.46 0.46 1.0
0.01 0.01 0.01 1.0
0.12 0.12 0.12 1.0
0.00 0.00 0.00 1.0
0.55 0.55 0.55 1.0
0.11 0.11 0.11 1.0
0.15 0.15 0.15 1.0
0.01 0.01 0.01 1.0
0.27 0.27 0.27 1.0
0.26 0.26 0.26 1.0
0.01 0.01 0.01 1.0
0.37 0.37 0.37 1.0
0.04 0.04 0.04 1.0
0.05 0.05 0.05 1.0
0.12 0.12 0.12 1.0
0.14 0.14 0.14 1.0
0.23 0.23 0.23 1.0
0.04 0.04 0.04 1.0
0.21 0.21 0.21 1.0
0.00 0.00 0.00 1.0
0.16 0.16 0.16 1.0
0.70 0.70 0.70 1.0
0.63 0.63 0.63 1.0
0.03 0.03 0.03 1.0
0.21 0.21 0.21 1.0
0.31 0.31 0.31 1.0
0.58 0.58 0.58 1.0
0.01 0.01 0.01 1.0
0.66 0.66 0.66 1.0
0.01 0.01 0.01 1.0
0.51 0.51 0.51 1.0
0.10 0.10 0.10 1.0
0.31 0.31 0.31 1.0
0.04 0.04 0.04 1.0
0.00 0.00 0.00 1.0
0.47 0.47 0.47 1.0
0.01 0.01 0.01 1.0
0.09 0.09 0.09 1.0
0.07 0.07 0.07 1.0
0.52 0.52 0.52 1.0
0.61 0.61 0.61 1.0
0.05 0.05 0.05 1.0
0.36 0.36 0.36 1.0
0.30 0.30 0.30 1.0
0.51 0.51 0.51 1.0
0.60 0.60 0.60 1.0
0.26 0.26 0.26 1.0
0.02 0.02 0.02 1.0