# vtk DataFile Version 2.0
grid description
ASCII
DATASET UNSTRUCTURED_GRID

POINTS 5280 double
345.562784 165.854261 1.000000
339.487162 163.829054 1.000000
344.983257 157.466807 1.000000
154.353334 297.435470 0.301961
159.989362 296.053191 0.301961
156.000000 303.000000 0.917647
58.000000 491.000000 1.000000
10.000000 491.000000 1.000000
10.000000 442.500000 1.000000
187.789015 347.560282 1.000000
195.427125 345.377964 1.000000
192.114362 357.963598 1.000000
173.350324 380.764414 1.000000
176.001248 388.764836 1.000000
167.836691 386.673382 1.000000
76.829391 448.117704 1.000000
95.834582 465.322141 1.000000
47.381414 351.304215 1.000000
10.000000 346.000000 1.000000
38.782108 334.000000 1.000000
331.611289 302.722578 1.000000
329.000000 300.000000 0.964706
331.000000 299.000000 1.000000
230.717819 459.090119 1.000000
202.000000 491.000000 1.000000
202.190425 435.085312 1.000000
300.268007 319.575638 1.000000
304.333333 331.000000 1.000000
290.448216 329.505481 1.000000
482.678197 390.157611 1.000000
508.675622 390.297513 1.000000
472.464733 414.065158 1.000000
328.662022 441.581804 1.000000
298.000000 491.000000 1.000000
294.068709 431.256841 1.000000
328.397231 303.191693 1.000000
326.000000 301.000000 0.596078
440.230280 371.595500 1.000000
416.795233 362.680933 1.000000
426.489289 338.936596 1.000000
854.383898 151.216420 1.000000
845.500000 156.000000 0.301961
846.796001 149.054372 1.000000
506.222559 345.859878 1.000000
519.860208 345.559168 1.000000
513.582358 357.345053 1.000000
867.166667 201.166667 1.000000
871.159472 200.109908 1.000000
870.655577 206.277506 1.000000
800.817850 271.130107 1.000000
797.406873 265.901252 1.000000
802.000000 265.000000 0.839216
853.241228 140.794470 1.000000
859.872267 131.953216 1.000000
863.532240 142.759663 1.000000
914.089119 228.163759 1.000000
918.661818 256.597605 1.000000
902.678055 241.221820 1.000000
143.616810 194.600534 1.000000
149.635422 197.432289 1.000000
145.828676 203.234265 1.000000
191.716970 149.985760 1.000000
193.208111 146.994122 1.000000
194.000000 152.000000 1.000000
824.000000 229.500000 0.839216
821.000000 221.000000 0.929412
827.789060 217.042188 0.301961
143.311715 254.672071 0.301961
153.000000 248.000000 0.788235
155.000000 256.000000 0.301961
773.409909 362.837514 0.301961
769.500000 364.000000 0.301961
769.791276 360.954894 0.301961
84.537608 147.978286 1.000000
79.340160 138.278056 1.000000
90.162985 140.271642 1.000000
724.627675 417.355335 1.000000
739.648418 433.980535 1.000000
706.408719 451.565266 1.000000
694.513185 227.825845 1.000000
687.402609 230.301957 1.000000
684.976076 225.006882 1.000000
111.560706 157.864238 0.301961
100.966899 158.278165 0.301961
107.000000 149.000000 0.721569
723.000000 179.000000 0.301961
718.082220 180.500000 1.000000
715.511492 175.453643 1.000000
619.168658 211.968776 1.000000
609.259036 209.379518 1.000000
614.940937 202.639722 1.000000
277.000000 219.000000 0.894118
285.983106 212.672298 0.301961
284.814170 220.553094 0.301961
666.250000 292.312500 1.000000
665.800000 292.650000 1.000000
665.719539 292.073968 1.000000
454.851360 151.387576 1.000000
462.000000 154.000000 0.886275
454.000000 158.000000 1.000000
228.000000 299.000000 0.800000
231.180613 294.777546 0.301961
232.000000 300.000000 0.913725
598.714286 144.857143 1.000000
608.013379 136.495693 1.000000
605.000000 153.000000 0.960784
313.455004 187.825400 1.000000
311.000000 192.000000 0.701961
309.000000 187.000000 0.301961
331.000000 259.000000 0.301961
336.523256 259.244186 1.000000
333.000000 264.000000 0.847059
515.936002 161.585527 0.301961
522.000000 155.000000 0.901961
523.063380 163.683099 0.301961
668.267783 81.057974 1.000000
622.109509 49.061782 1.000000
658.000000 37.378951 1.000000
474.543382 106.055129 1.000000
460.407048 108.697462 1.000000
464.994701 94.105685 1.000000
744.939315 110.617748 1.000000
763.061777 117.814668 1.000000
740.760394 129.663900 1.000000
640.500000 139.079452 1.000000
644.000000 149.000000 0.949020
637.000000 149.000000 0.301961
705.491320 128.301150 1.000000
701.897450 139.897450 1.000000
689.782116 137.049061 1.000000
695.079512 274.282029 0.301961
691.027482 274.492630 0.301961
694.922414 267.422414 0.301961
583.183470 287.798615 1.000000
580.795647 293.147823 1.000000
578.000000 288.000000 0.901961
773.048391 358.499294 0.301961
769.000000 358.000000 0.898039
773.000000 352.000000 0.301961
869.962222 116.962748 1.000000
881.293129 101.845654 1.000000
882.584158 134.260962 1.000000
695.354592 342.778276 1.000000
694.668519 332.657404 1.000000
707.493083 330.066478 1.000000
513.080828 429.113822 1.000000
551.193763 437.687964 1.000000
538.000000 491.000000 1.000000
815.739213 145.098033 1.000000
823.833959 139.501878 1.000000
825.701076 145.103229 1.000000
937.803817 235.466068 1.000000
970.000000 202.000000 1.000000
970.000000 250.000000 1.000000
197.000000 152.500000 1.000000
197.500000 149.500000 1.000000
621.118789 240.656090 0.301961
614.211663 244.533747 0.301961
611.000000 239.000000 0.301961
726.620269 157.158120 0.301961
729.000000 153.000000 0.301961
731.704260 157.307705 0.301961
71.232027 151.616014 1.000000
64.028582 127.636696 1.000000
58.000000 10.000000 1.000000
68.915556 55.843397 1.000000
10.000000 58.000000 1.000000
631.253013 228.751808 0.301961
624.486486 233.486486 0.301961
621.000000 226.000000 0.301961
765.233116 345.553377 1.000000
770.000000 342.000000 0.898039
771.000000 347.000000 0.937255
52.357791 142.178895 1.000000
36.683224 117.645050 1.000000
10.000000 154.000000 1.000000
10.000000 106.000000 1.000000
270.541667 155.416667 0.301961
271.000000 152.000000 1.000000
273.000000 153.000000 0.301961
366.347264 126.308648 1.000000
373.474186 130.729814 1.000000
368.637783 138.752226 1.000000
95.984074 295.270435 1.000000
102.000000 292.000000 0.917647
101.332874 296.250688 1.000000
84.876922 222.059271 1.000000
76.398573 209.913035 1.000000
88.538937 212.806283 1.000000
60.354519 296.806048 1.000000
52.263979 277.086539 1.000000
72.430297 283.988383 1.000000
101.663621 239.078434 1.000000
103.500000 236.000000 1.000000
104.738557 237.434922 1.000000
252.000000 273.500000 0.301961
248.097143 272.300952 0.301961
249.669400 268.654309 0.301961
743.236964 250.050417 0.929412
743.169145 250.419145 0.929412
742.803097 250.113937 1.000000
131.289860 199.357082 0.301961
136.000000 194.000000 0.721569
139.000000 202.000000 0.941176
84.111023 293.367769 1.000000
87.658650 286.526442 1.000000
91.684318 291.941371 1.000000
283.846090 178.646919 0.301961
288.574257 188.485149 0.301961
276.545863 189.495688 0.301961
434.701533 47.275539 1.000000
420.693755 90.444710 1.000000
403.462821 51.511191 1.000000
326.949980 109.973536 1.000000
309.866070 107.209321 1.000000
321.219626 81.341121 1.000000
297.192232 162.076942 0.301961
298.278992 169.398739 0.301961
293.633944 166.346643 0.301961
384.514268 206.923081 0.301961
386.946753 193.410649 0.301961
400.000000 203.500000 0.596078
199.684909 332.179604 1.000000
187.430654 338.672577 1.000000
299.888229 259.527943 0.301961
306.024762 251.047791 0.301961
311.667062 260.266588 0.301961
254.035538 259.282532 1.000000
249.000000 258.000000 0.301961
251.698212 254.641580 1.000000
328.000000 248.500000 0.701961
330.000000 254.000000 0.827451
323.257766 257.948447 0.301961
418.000000 295.000000 0.870588
426.260727 295.404291 1.000000
418.277543 305.048504 1.000000
882.439767 188.361257 1.000000
886.430221 190.959772 1.000000
882.022119 192.761059 1.000000
171.070644 367.070644 0.301961
173.480837 360.917393 0.301961
176.000000 369.000000 0.870588
798.966830 449.190724 1.000000
824.258798 462.481599 1.000000
778.000000 491.000000 1.000000
314.917779 197.682888 1.000000
315.408901 194.586440 1.000000
318.669174 196.182331 1.000000
252.293238 220.603381 1.000000
261.428571 220.857143 1.000000
259.359237 232.181727 1.000000
229.000000 188.000000 0.596078
227.000000 181.000000 0.596078
235.933143 176.427810 1.000000
774.500000 371.000000 0.937255
774.977041 379.478316 1.000000
771.152010 375.440956 1.000000
740.219575 257.716748 1.000000
741.804364 255.294194 1.000000
742.500000 259.500000 1.000000
384.459731 229.075498 0.301961
395.449749 228.339817 0.301961
393.818377 237.393874 0.301961
330.000000 242.000000 0.847059
333.000000 246.000000 0.800000
531.750000 247.750000 0.925490
530.500000 247.250000 1.000000
531.000000 246.000000 0.301961
446.000000 192.000000 0.301961
452.057748 194.206952 0.301961
448.399652 201.320070 0.301961
347.608922 235.819973 1.000000
356.884615 241.269231 1.000000
349.694738 245.329604 1.000000
296.923370 213.695350 0.301961
292.195947 226.015444 0.301961
288.000000 273.500000 1.000000
285.000000 273.000000 0.741176
285.250000 269.750000 1.000000
304.542813 309.114848 1.000000
295.452120 307.897174 1.000000
893.729997 188.974651 1.000000
904.732608 181.967851 1.000000
910.139135 194.143181 1.000000
791.983375 223.459132 1.000000
786.866302 217.562385 1.000000
793.004333 211.426066 1.000000
545.630961 228.638327 1.000000
546.000000 231.000000 0.901961
544.053000 229.783125 0.992157
425.712046 157.927552 1.000000
436.812387 162.755981 1.000000
429.277778 170.611111 1.000000
526.973860 212.018653 1.000000
524.000000 221.000000 0.301961
521.302880 210.625084 1.000000
640.000000 156.000000 0.301961
826.931246 297.532505 1.000000
821.656348 293.501436 1.000000
829.000000 292.000000 0.301961
863.363676 196.926580 1.000000
863.860981 207.169560 1.000000
137.005632 223.711872 0.301961
126.113636 227.193182 0.301961
131.320878 216.735824 0.301961
743.700933 142.294401 1.000000
757.270077 135.189768 1.000000
754.363375 143.909875 1.000000
821.601063 358.262303 1.000000
822.250000 367.000000 1.000000
816.000000 365.000000 0.964706
636.835921 306.296954 1.000000
633.007375 305.032075 1.000000
638.000000 302.000000 0.811765
261.500000 298.000000 0.301961
265.578869 298.777889 1.000000
263.000000 301.000000 0.964706
161.771301 291.360531 0.301961
166.750000 292.000000 0.301961
747.936777 279.090438 1.000000
[...]
CELL_DATA 10487
SCALARS scalars float 1
LOOKUP_TABLE lut
0.0000000000
0.0000953652
0.0001907305
0.0002860957
0.0003814610
0.0004768262
0.0005721915
0.0006675567
0.0007629220
0.0008582872
0.0009536525
0.0010490177
0.0011443830
0.0012397482
0.0013351135
0.0014304787
0.0015258440
0.0016212092
0.0017165745
0.0018119397
0.0019073050
0.0020026702
0.0020980355
0.0021934007
0.0022887660
0.0023841312
0.0024794965
0.0025748617
0.0026702270
0.0027655922
0.0028609575
0.0029563227
0.0030516880
0.0031470532
0.0032424185
0.0033377837
0.0034331490
0.0035285142
0.0036238795
0.0037192447
0.0038146100
0.0039099752
0.0040053405
0.0041007057
0.0041960710
0.0042914362
0.0043868014
0.0044821667
0.0045775319
0.0046728972
0.0047682624
0.0048636277
0.0049589929
0.0050543582
0.0051497234
0.0052450887
0.0053404539
0.0054358192
0.0055311844
0.0056265497
0.0057219149
0.0058172802
0.0059126454
0.0060080107
0.0061033759
0.0061987412
0.0062941064
0.0063894717
0.0064848369
0.0065802022
0.0066755674
0.0067709327
0.0068662979
0.0069616632
0.0070570284
0.0071523937
0.0072477589
0.0073431242
0.0074384894
0.0075338547
0.0076292199
0.0077245852
0.0078199504
0.0079153157
0.0080106809
0.0081060462
0.0082014114
0.0082967767
0.0083921419
0.0084875072
0.0085828724
0.0086782377
0.0087736029
0.0088689681
0.0089643334
0.0090596986
0.0091550639
0.0092504291
0.0093457944
0.0094411596
0.0095365249
0.0096318901
0.0097272554
0.0098226206
0.0099179859
0.0100133511
0.0101087164
0.0102040816
0.0102994469
0.0103948121
0.0104901774
0.0105855426
0.0106809079
0.0107762731
0.0108716384
0.0109670036
0.0110623689
0.0111577341
0.0112530994
0.0113484646
0.0114438299
0.0115391951
0.0116345604
0.0117299256
0.0118252909
0.0119206561
0.0120160214
0.0121113866
0.0122067519
0.0123021171
0.0123974824
0.0124928476
0.0125882129
0.0126835781
0.0127789434
0.0128743086
0.0129696739
0.0130650391
0.0131604043
0.0132557696
0.0133511348
0.0134465001
0.0135418653
0.0136372306
0.0137325958
0.0138279611
0.0139233263
0.0140186916
0.0141140568
0.0142094221
0.0143047873
0.0144001526
0.0144955178
0.0145908831
0.0146862483
0.0147816136
0.0148769788
0.0149723441
0.0150677093
0.0151630746
0.0152584398
0.0153538051
0.0154491703
0.0155445356
0.0156399008
0.0157352661
0.0158306313
0.0159259966
0.0160213618
0.0161167271
0.0162120923
0.0163074576
0.0164028228
0.0164981881
0.0165935533
0.0166889186
0.0167842838
0.0168796491
0.0169750143
0.0170703796
0.0171657448
0.0172611101
0.0173564753
0.0174518405
0.0175472058
0.0176425710
0.0177379363
0.0178333015
0.0179286668
0.0180240320
0.0181193973
0.0182147625
0.0183101278
0.0184054930
0.0185008583
0.0185962235
0.0186915888
0.0187869540
0.0188823193
0.0189776845
0.0190730498
0.0191684150
0.0192637803
0.0193591455
0.0194545108
0.0195498760
0.0196452413
0.0197406065
0.0198359718
0.0199313370
0.0200267023
0.0201220675
0.0202174328
0.0203127980
0.0204081633
0.0205035285
0.0205988938
0.0206942590
0.0207896243
0.0208849895
0.0209803548
0.0210757200
0.0211710853
0.0212664505
0.0213618158
0.0214571810
0.0215525463
0.0216479115
0.0217432767
0.0218386420
0.0219340072
0.0220293725
0.0221247377
0.0222201030
0.0223154682
0.0224108335
0.0225061987
0.0226015640
0.0226969292
0.0227922945
0.0228876597
0.0229830250
0.0230783902
0.0231737555
0.0232691207
0.0233644860
0.0234598512
0.0235552165
0.0236505817
0.0237459470
0.0238413122
0.0239366775
0.0240320427
0.0241274080
0.0242227732
0.0243181385
0.0244135037
0.0245088690
0.0246042342
0.0246995995
0.0247949647
0.0248903300
0.0249856952
0.0250810605
0.0251764257
0.0252717910
0.0253671562
0.0254625215
0.0255578867
0.0256532520
0.0257486172
0.0258439825
0.0259393477
0.0260347130
0.0261300782
0.0262254434
0.0263208087
0.0264161739
0.0265115392
0.0266069044
0.0267022697
0.0267976349
0.0268930002
0.0269883654
0.0270837307
0.0271790959
0.0272744612
0.0273698264
0.0274651917
0.0275605569
0.0276559222
0.0277512874
0.0278466527
0.0279420179
0.0280373832
0.0281327484
0.0282281137
0.0283234789
0.0284188442
0.0285142094
0.0286095747
0.0287049399
0.0288003052
0.0288956704
0.0289910357
0.0290864009
0.0291817662
0.0292771314
0.0293724967
0.0294678619
0.0295632272
0.0296585924
0.0297539577
0.0298493229
0.0299446882
0.0300400534
0.0301354187
0.0302307839
0.0303261492
0.0304215144
0.0305168796
0.0306122449
0.0307076101
0.0308029754
0.0308983406
0.0309937059
0.0310890711
0.0311844364
0.0312798016
0.0313751669
0.0314705321
0.0315658974
0.0316612626
0.0317566279
0.0318519931
0.0319473584
0.0320427236
0.0321380889
0.0322334541
0.0323288194
0.0324241846
0.0325195499
0.0326149151
0.0327102804
0.0328056456
0.0329010109
0.0329963761
0.0330917414
0.0331871066
0.0332824719
0.0333778371
0.0334732024
0.0335685676
0.0336639329
0.0337592981
0.0338546634
0.0339500286
0.0340453939
0.0341407591
0.0342361244
0.0343314896
0.0344268549
0.0345222201
0.0346175854
0.0347129506
0.0348083158
0.0349036811
0.0349990463
0.0350944116
0.0351897768
0.0352851421
0.0353805073
0.0354758726
0.0355712378
0.0356666031
0.0357619683
0.0358573336
0.0359526988
0.0360480641
0.0361434293
0.0362387946
0.0363341598
0.0364295251
0.0365248903
0.0366202556
0.0367156208
0.0368109861
0.0369063513
0.0370017166
0.0370970818
0.0371924471
0.0372878123
0.0373831776
0.0374785428
0.0375739081
0.0376692733
0.0377646386
0.0378600038
0.0379553691
0.0380507343
0.0381460996
0.0382414648
0.0383368301
0.0384321953
0.0385275606
0.0386229258
0.0387182911
0.0388136563
0.0389090216
0.0390043868
0.0390997521
0.0391951173
0.0392904825
0.0393858478
0.0394812130
0.0395765783
0.0396719435
0.0397673088
0.0398626740
0.0399580393
0.0400534045
0.0401487698
0.0402441350
0.0403395003
0.0404348655
0.0405302308
0.0406255960
0.0407209613
0.0408163265
0.0409116918
0.0410070570
0.0411024223
0.0411977875
0.0412931528
0.0413885180
0.0414838833
0.0415792485
0.0416746138
0.0417699790
0.0418653443
0.0419607095
0.0420560748
0.0421514400
0.0422468053
0.0423421705
0.0424375358
0.0425329010
0.0426282663
0.0427236315
0.0428189968
0.0429143620
0.0430097273
0.0431050925
0.0432004578
0.0432958230
0.0433911883
0.0434865535
0.0435819187
0.0436772840
0.0437726492
0.0438680145
0.0439633797
0.0440587450
0.0441541102
0.0442494755
0.0443448407
0.0444402060
0.0445355712
0.0446309365
0.0447263017
0.0448216670
0.0449170322
0.0450123975
0.0451077627
0.0452031280
0.0452984932
0.0453938585
0.0454892237
0.0455845890
0.0456799542
0.0457753195
0.0458706847
0.0459660500
0.0460614152
0.0461567805
0.0462521457
0.0463475110
0.0464428762
0.0465382415
0.0466336067
0.0467289720
0.0468243372
0.0469197025
0.0470150677
0.0471104330
0.0472057982
0.0473011635
0.0473965287
0.0474918940
0.0475872592
0.0476826245
0.0477779897
0.0478733549
0.0479687202
0.0480640854
0.0481594507
0.0482548159
0.0483501812
0.0484455464
0.0485409117
0.0486362769
0.0487316422
0.0488270074
0.0489223727
0.0490177379
0.0491131032
0.0492084684
0.0493038337
0.0493991989
0.0494945642
0.0495899294
0.0496852947
0.0497806599
0.0498760252
0.0499713904
0.0500667557
0.0501621209
0.0502574862
0.0503528514
0.0504482167
0.0505435819
0.0506389472
0.0507343124
0.0508296777
0.0509250429
0.0510204082
0.0511157734
0.0512111387
0.0513065039
0.0514018692
0.0514972344
0.0515925997
0.0516879649
0.0517833302
0.0518786954
0.0519740607
0.0520694259
0.0521647912
0.0522601564
0.0523555216
0.0524508869
0.0525462521
0.0526416174
0.0527369826
0.0528323479
0.0529277131
0.0530230784
0.0531184436
0.0532138089
0.0533091741
0.0534045394
0.0534999046
0.0535952699
0.0536906351
0.0537860004
0.0538813656
0.0539767309
0.0540720961
0.0541674614
0.0542628266
0.0543581919
0.0544535571
0.0545489224
0.0546442876
0.0547396529
0.0548350181
0.0549303834
0.0550257486
0.0551211139
0.0552164791
0.0553118444
0.0554072096
0.0555025749
0.0555979401
0.0556933054
0.0557886706
0.0558840359
0.0559794011
0.0560747664
0.0561701316
0.0562654969
0.0563608621
0.0564562274
0.0565515926
0.0566469578
0.0567423231
0.0568376883
0.0569330536
0.0570284188
0.0571237841
0.0572191493
0.0573145146
0.0574098798
0.0575052451
0.0576006103
0.0576959756
0.0577913408
0.0578867061
0.0579820713
0.0580774366
0.0581728018
0.0582681671
0.0583635323
0.0584588976
0.0585542628
0.0586496281
0.0587449933
0.0588403586
0.0589357238
0.0590310891
0.0591264543
0.0592218196
0.0593171848
0.0594125501
0.0595079153
0.0596032806
0.0596986458
0.0597940111
0.0598893763
0.0599847416
0.0600801068
0.0601754721
0.0602708373
0.0603662026
0.0604615678
0.0605569331
0.0606522983
0.0607476636
0.0608430288
0.0609383940
0.0610337593
0.0611291245
0.0612244898
0.0613198550
0.0614152203
0.0615105855
0.0616059508
0.0617013160
0.0617966813
0.0618920465
0.0619874118
0.0620827770
0.0621781423
0.0622735075
0.0623688728
0.0624642380
0.0625596033
0.0626549685
0.0627503338
0.0628456990
0.0629410643
0.0630364295
0.0631317948
0.0632271600
0.0633225253
0.0634178905
0.0635132558
0.0636086210
0.0637039863
0.0637993515
0.0638947168
0.0639900820
0.0640854473
0.0641808125
0.0642761778
0.0643715430
0.0644669083
0.0645622735
0.0646576388
0.0647530040
0.0648483693
0.0649437345
0.0650390998
0.0651344650
0.0652298302
0.0653251955
0.0654205607
0.0655159260
0.0656112912
0.0657066565
0.0658020217
0.0658973870
0.0659927522
0.0660881175
0.0661834827
0.0662788480
0.0663742132
0.0664695785
0.0665649437
0.0666603090
0.0667556742
0.0668510395
0.0669464047
0.0670417700
0.0671371352
0.0672325005
0.0673278657
0.0674232310
0.0675185962
0.0676139615
0.0677093267
0.0678046920
0.0679000572
0.0679954225
0.0680907877
0.0681861530
0.0682815182
0.0683768835
0.0684722487
0.0685676140
0.0686629792
0.0687583445
0.0688537097
0.0689490750
0.0690444402
0.0691398055
0.0692351707
0.0693305360
0.0694259012
0.0695212665
0.0696166317
0.0697119969
0.0698073622
0.0699027274
0.0699980927
0.0700934579
0.0701888232
0.0702841884
0.0703795537
0.0704749189
0.0705702842
0.0706656494
0.0707610147
0.0708563799
0.0709517452
0.0710471104
0.0711424757
0.0712378409
0.0713332062
0.0714285714
0.0715239367
0.0716193019
0.0717146672
0.0718100324
0.0719053977
0.0720007629
0.0720961282
0.0721914934
0.0722868587
0.0723822239
0.0724775892
0.0725729544
0.0726683197
0.0727636849
0.0728590502
0.0729544154
0.0730497807
0.0731451459
0.0732405112
0.0733358764
0.0734312417
0.0735266069
0.0736219722
0.0737173374
0.0738127027
0.0739080679
0.0740034331
0.0740987984
0.0741941636
0.0742895289
0.0743848941
0.0744802594
0.0745756246
0.0746709899
0.0747663551
0.0748617204
0.0749570856
0.0750524509
0.0751478161
0.0752431814
0.0753385466
0.0754339119
0.0755292771
0.0756246424
0.0757200076
0.0758153729
0.0759107381
0.0760061034
0.0761014686
0.0761968339
0.0762921991
0.0763875644
0.0764829296
0.0765782949
0.0766736601
0.0767690254
0.0768643906
0.0769597559
0.0770551211
0.0771504864
0.0772458516
0.0773412169
0.0774365821
0.0775319474
0.0776273126
0.0777226779
0.0778180431
0.0779134084
0.0780087736
0.0781041389
0.0781995041
0.0782948693
0.0783902346
0.0784855998
0.0785809651
0.0786763303
0.0787716956
0.0788670608
0.0789624261
0.0790577913
0.0791531566
0.0792485218
0.0793438871
0.0794392523
0.0795346176
0.0796299828
0.0797253481
0.0798207133
0.0799160786
0.0800114438
0.0801068091
0.0802021743
0.0802975396
0.0803929048
0.0804882701
0.0805836353
0.0806790006
0.0807743658
0.0808697311
0.0809650963
0.0810604616
0.0811558268
0.0812511921
0.0813465573
0.0814419226
0.0815372878
0.0816326531
0.0817280183
0.0818233836
0.0819187488
0.0820141141
0.0821094793
0.0822048446
0.0823002098
0.0823955751
0.0824909403
0.0825863056
0.0826816708
0.0827770360
0.0828724013
0.0829677665
0.0830631318
0.0831584970
0.0832538623
0.0833492275
0.0834445928
0.0835399580
0.0836353233
0.0837306885
0.0838260538
0.0839214190
0.0840167843
0.0841121495
0.0842075148
0.0843028800
0.0843982453
0.0844936105
0.0845889758
0.0846843410
0.0847797063
0.0848750715
0.0849704368
0.0850658020
0.0851611673
0.0852565325
0.0853518978
0.0854472630
0.0855426283
0.0856379935
0.0857333588
0.0858287240
0.0859240893
0.0860194545
0.0861148198
0.0862101850
0.0863055503
0.0864009155
0.0864962808
0.0865916460
0.0866870113
0.0867823765
0.0868777418
0.0869731070
0.0870684722
0.0871638375
0.0872592027
0.0873545680
0.0874499332
0.0875452985
0.0876406637
0.0877360290
0.0878313942
0.0879267595
0.0880221247
0.0881174900
0.0882128552
0.0883082205
0.0884035857
0.0884989510
0.0885943162
0.0886896815
0.0887850467
0.0888804120
0.0889757772
0.0890711425
0.0891665077
0.0892618730
0.0893572382
0.0894526035
0.0895479687
0.0896433340
0.0897386992
0.0898340645
0.0899294297
0.0900247950
0.0901201602
0.0902155255
0.0903108907
0.0904062560
0.0905016212
0.0905969865
0.0906923517
0.0907877170
0.0908830822
0.0909784475
0.0910738127
0.0911691780
0.0912645432
0.0913599084
0.0914552737
0.0915506389
0.0916460042
0.0917413694
0.0918367347
0.0919320999
0.0920274652
0.0921228304
0.0922181957
0.0923135609
0.0924089262
0.0925042914
0.0925996567
0.0926950219
0.0927903872
0.0928857524
0.0929811177
0.0930764829
0.0931718482
0.0932672134
0.0933625787
0.0934579439
0.0935533092
0.0936486744
0.0937440397
0.0938394049
0.0939347702
0.0940301354
0.0941255007
0.0942208659
0.0943162312
0.0944115964
0.0945069617
0.0946023269
0.0946976922
0.0947930574
0.0948884227
0.0949837879
0.0950791532
0.0951745184
0.0952698837
0.0953652489
0.0954606142
0.0955559794
0.0956513447
0.0957467099
0.0958420751
0.0959374404
0.0960328056
0.0961281709
0.0962235361
0.0963189014
0.0964142666
0.0965096319
0.0966049971
0.0967003624
0.0967957276
0.0968910929
0.0969864581
0.0970818234
0.0971771886
0.0972725539
0.0973679191
0.0974632844
0.0975586496
0.0976540149
0.0977493801
0.0978447454
0.0979401106
0.0980354759
0.0981308411
0.0982262064
0.0983215716
0.0984169369
0.0985123021
0.0986076674
0.0987030326
0.0987983979
0.0988937631
0.0989891284
0.0990844936
0.0991798589
0.0992752241
0.0993705894
0.0994659546
0.0995613199
0.0996566851
0.0997520504
0.0998474156
0.0999427809
0.1000381461
0.1001335113
0.1002288766
0.1003242418
0.1004196071
0.1005149723
0.1006103376
0.1007057028
0.1008010681
0.1008964333
0.1009917986
0.1010871638
0.1011825291
0.1012778943
0.1013732596
0.1014686248
0.1015639901
0.1016593553
0.1017547206
0.1018500858
0.1019454511
0.1020408163
0.1021361816
0.1022315468
0.1023269121
0.1024222773
0.1025176426
0.1026130078
0.1027083731
0.1028037383
0.1028991036
0.1029944688
0.1030898341
0.1031851993
0.1032805646
0.1033759298
0.1034712951
0.1035666603
0.1036620256
0.1037573908
0.1038527561
0.1039481213
0.1040434866
0.1041388518
0.1042342171
0.1043295823
0.1044249475
0.1045203128
0.1046156780
0.1047110433
0.1048064085
0.1049017738
0.1049971390
0.1050925043
0.1051878695
0.1052832348
0.1053786000
0.1054739653
0.1055693305
0.1056646958
0.1057600610
0.1058554263
0.1059507915
0.1060461568
0.1061415220
0.1062368873
0.1063322525
0.1064276178
0.1065229830
0.1066183483
0.1067137135
0.1068090788
0.1069044440
0.1069998093
0.1070951745
0.1071905398
0.1072859050
0.1073812703
0.1074766355
0.1075720008
0.1076673660
0.1077627313
0.1078580965
0.1079534618
0.1080488270
0.1081441923
0.1082395575
0.1083349228
0.1084302880
0.1085256533
0.1086210185
0.1087163837
0.1088117490
0.1089071142
0.1090024795
0.1090978447
0.1091932100
0.1092885752
0.1093839405
0.1094793057
0.1095746710
0.1096700362
0.1097654015
0.1098607667
0.1099561320
0.1100514972
0.1101468625
0.1102422277
0.1103375930
0.1104329582
0.1105283235
0.1106236887
0.1107190540
0.1108144192
0.1109097845
0.1110051497
0.1111005150
0.1111958802
0.1112912455
0.1113866107
0.1114819760
0.1115773412
0.1116727065
0.1117680717
0.1118634370
0.1119588022
0.1120541675
0.1121495327
0.1122448980
0.1123402632
0.1124356285
0.1125309937
0.1126263590
0.1127217242
0.1128170895
0.1129124547
0.1130078200
0.1131031852
0.1131985504
0.1132939157
0.1133892809
0.1134846462
0.1135800114
0.1136753767
0.1137707419
0.1138661072
0.1139614724
0.1140568377
0.1141522029
0.1142475682
0.1143429334
0.1144382987
0.1145336639
0.1146290292
0.1147243944
0.1148197597
0.1149151249
0.1150104902
0.1151058554
0.1152012207
0.1152965859
0.1153919512
0.1154873164
0.1155826817
0.1156780469
0.1157734122
0.1158687774
0.1159641427
0.1160595079
0.1161548732
0.1162502384
0.1163456037
0.1164409689
0.1165363342
0.1166316994
0.1167270647
0.1168224299
0.1169177952
0.1170131604
0.1171085257
0.1172038909
0.1172992562
0.1173946214
0.1174899866
0.1175853519
0.1176807171
0.1177760824
0.1178714476
0.1179668129
0.1180621781
0.1181575434
0.1182529086
0.1183482739
0.1184436391
0.1185390044
0.1186343696
0.1187297349
0.1188251001
0.1189204654
0.1190158306
0.1191111959
0.1192065611
0.1193019264
0.1193972916
0.1194926569
0.1195880221
0.1196833874
0.1197787526
0.1198741179
0.1199694831
0.1200648484
0.1201602136
0.1202555789
0.1203509441
0.1204463094
0.1205416746
0.1206370399
0.1207324051
0.1208277704
0.1209231356
0.1210185009
0.1211138661
0.1212092314
0.1213045966
0.1213999619
0.1214953271
0.1215906924
0.1216860576
0.1217814228
0.1218767881
0.1219721533
0.1220675186
0.1221628838
0.1222582491
0.1223536143
0.1224489796
0.1225443448
0.1226397101
0.1227350753
0.1228304406
0.1229258058
0.1230211711
0.1231165363
0.1232119016
0.1233072668
0.1234026321
0.1234979973
0.1235933626
0.1236887278
0.1237840931
0.1238794583
0.1239748236
0.1240701888
0.1241655541
0.1242609193
0.1243562846
0.1244516498
0.1245470151
0.1246423803
0.1247377456
0.1248331108
0.1249284761
0.1250238413
0.1251192066
0.1252145718
0.1253099371
0.1254053023
0.1255006676
0.1255960328
0.1256913981
0.1257867633
0.1258821286
0.1259774938
0.1260728591
0.1261682243
0.1262635895
0.1263589548
0.1264543200
0.1265496853
0.1266450505
0.1267404158
0.1268357810
0.1269311463
0.1270265115
0.1271218768
0.1272172420
0.1273126073
0.1274079725
0.1275033378
0.1275987030
0.1276940683
0.1277894335
0.1278847988
0.1279801640
0.1280755293
0.1281708945
0.1282662598
0.1283616250
0.1284569903
0.1285523555
0.1286477208
0.1287430860
0.1288384513
0.1289338165
0.1290291818
0.1291245470
0.1292199123
0.1293152775
0.1294106428
0.1295060080
0.1296013733
0.1296967385
0.1297921038
0.1298874690
0.1299828343
0.1300781995
0.1301735648
0.1302689300
0.1303642953
0.1304596605
0.1305550257
0.1306503910
0.1307457562
0.1308411215
0.1309364867
0.1310318520
0.1311272172
0.1312225825
0.1313179477
0.1314133130
0.1315086782
0.1316040435
0.1316994087
0.1317947740
0.1318901392
0.1319855045
0.1320808697
0.1321762350
0.1322716002
0.1323669655
0.1324623307
0.1325576960
0.1326530612
0.1327484265
0.1328437917
0.1329391570
0.1330345222
0.1331298875
0.1332252527
0.1333206180
0.1334159832
0.1335113485
0.1336067137
0.1337020790
0.1337974442
0.1338928095
0.1339881747
0.1340835400
0.1341789052
0.1342742705
0.1343696357
0.1344650010
0.1345603662
0.1346557315
0.1347510967
0.1348464619
0.1349418272
0.1350371924
0.1351325577
0.1352279229
0.1353232882
0.1354186534
0.1355140187
0.1356093839
0.1357047492
0.1358001144
0.1358954797
0.1359908449
0.1360862102
0.1361815754
0.1362769407
0.1363723059
0.1364676712
0.1365630364
0.1366584017
0.1367537669
0.1368491322
0.1369444974
0.1370398627
0.1371352279
0.1372305932
0.1373259584
0.1374213237
0.1375166889
0.1376120542
0.1377074194
0.1378027847
0.1378981499
0.1379935152
0.1380888804
0.1381842457
0.1382796109
0.1383749762
0.1384703414
0.1385657067
0.1386610719
0.1387564372
0.1388518024
0.1389471677
0.1390425329
0.1391378981
0.1392332634
0.1393286286
0.1394239939
0.1395193591
0.1396147244
0.1397100896
0.1398054549
0.1399008201
0.1399961854
0.1400915506
0.1401869159
0.1402822811
0.1403776464
0.1404730116
0.1405683769
0.1406637421
0.1407591074
0.1408544726
0.1409498379
0.1410452031
0.1411405684
0.1412359336
0.1413312989
0.1414266641
0.1415220294
0.1416173946
0.1417127599
0.1418081251
0.1419034904
0.1419988556
0.1420942209
0.1421895861
0.1422849514
0.1423803166
0.1424756819
0.1425710471
0.1426664124
0.1427617776
0.1428571429
0.1429525081
0.1430478734
0.1431432386
0.1432386039
0.1433339691
0.1434293344
0.1435246996
0.1436200648
0.1437154301
0.1438107953
0.1439061606
0.1440015258
0.1440968911
0.1441922563
0.1442876216
0.1443829868
0.1444783521
0.1445737173
0.1446690826
0.1447644478
0.1448598131
0.1449551783
0.1450505436
0.1451459088
0.1452412741
0.1453366393
0.1454320046
0.1455273698
0.1456227351
0.1457181003
0.1458134656
0.1459088308
0.1460041961
0.1460995613
0.1461949266