# vtk DataFile Version 2.0
grid description
ASCII
DATASET UNSTRUCTURED_GRID

POINTS 14391 double
184.616071 123.578328 0.290196
176.500000 126.500000 0.650980
176.000000 117.250000 0.470588
64.166545 550.427431 0.843137
65.819444 550.341667 0.839216
65.339462 551.595206 0.839216
15.579944 591.162923 0.721569
10.000000 600.000000 0.639216
10.000000 588.625000 0.729412
277.138889 530.208333 0.427451
280.500000 534.000000 0.729412
277.500000 535.000000 0.478431
159.586610 493.065572 0.878431
156.000000 486.250000 0.776471
160.000000 485.375000 0.745098
514.864583 164.593750 0.776471
519.000000 169.500000 0.800000
513.000000 171.000000 0.811765
433.416667 162.583333 0.800000
435.000000 162.000000 0.803922
434.500000 165.000000 0.811765
228.663775 565.344816 0.882353
225.223696 583.651906 0.878431
208.992143 572.175076 0.890196
426.637605 20.448066 0.305882
429.500000 23.250000 0.313725
422.249607 22.799443 0.321569
139.170336 251.582416 0.780392
138.567175 248.475531 0.776471
141.000000 249.000000 0.792157
443.750000 600.000000 0.874510
418.000000 600.000000 0.878431
431.071961 577.128220 0.858824
316.315389 560.921041 0.874510
328.346212 568.432716 0.882353
317.149819 573.649262 0.901961
157.136476 96.398013 0.647059
174.500000 89.500000 0.549020
175.500000 108.000000 0.600000
184.598338 100.072928 0.266667
187.965263 86.748145 0.250980
261.777610 510.215950 0.341176
262.559421 508.565459 0.368627
264.710696 510.998201 0.352941
282.340425 282.478726 0.466667
282.500000 284.500000 0.400000
281.000000 284.000000 0.392157
161.500000 334.500000 0.792157
159.307475 333.310345 0.800000
161.666667 332.500000 0.784314
330.750000 308.625000 0.325490
334.052600 307.582074 0.835294
331.500000 311.000000 0.666667
40.707228 551.143078 0.796078
43.756356 548.938559 0.815686
43.900563 553.376293 0.807843
419.377990 466.593764 0.866667
418.118355 469.138375 0.870588
416.863022 467.911588 0.874510
260.829448 559.932209 0.843137
258.000000 561.738095 0.850980
258.000000 559.095184 0.850980
342.041970 56.183212 0.435294
339.630952 59.654762 0.337255
337.500000 57.000000 0.360784
403.020270 178.182432 0.807843
405.500000 176.500000 0.815686
406.000000 178.500000 0.803922
140.143344 480.573636 0.690196
143.669168 479.445309 0.643137
143.058187 483.609055 0.549020
38.091415 566.997739 0.839216
40.312690 568.000761 0.847059
37.000000 569.171311 0.847059
376.062500 32.875000 0.403922
375.750000 33.500000 0.403922
375.000000 32.500000 0.341176
397.689526 27.914307 0.313725
396.630351 27.760421 0.305882
396.519587 26.702369 0.313725
90.234465 444.727896 0.843137
83.500000 449.000000 0.800000
84.656888 444.238521 0.847059
418.074566 370.029696 0.827451
424.887156 359.245478 0.843137
430.263994 366.270893 0.827451
493.140595 207.718811 0.803922
492.627685 205.519775 0.800000
496.000000 206.000000 0.811765
507.088789 141.693873 0.768627
512.815275 147.183558 0.776471
504.840175 150.759950 0.772549
234.720817 144.260165 0.329412
236.560152 141.174836 0.325490
238.872583 145.161706 0.333333
496.391742 15.660107 0.384314
496.000000 14.500000 0.435294
497.267605 14.718153 0.337255
443.092105 160.907895 0.792157
447.000000 163.000000 0.800000
441.500000 164.000000 0.807843
157.114286 275.778571 0.666667
153.910299 271.118201 0.647059
158.422110 266.844219 0.682353
336.000000 136.000000 0.317647
333.085366 135.786585 0.317647
332.749126 131.820827 0.356863
141.166439 29.484132 0.588235
144.354467 40.460615 0.580392
132.782116 33.290678 0.584314
345.299689 27.501553 0.286275
340.486908 28.606023 0.235294
337.856179 21.224813 0.250980
152.627056 59.500000 0.619608
127.987175 53.953679 0.603922
188.817002 11.548975 0.227451
188.273438 10.578125 0.227451
189.316406 10.554688 0.227451
330.780365 398.622010 0.886275
322.500000 401.000000 0.647059
323.500000 394.500000 0.682353
324.276957 516.383049 0.862745
329.632215 511.713062 0.854902
330.823813 521.601859 0.854902
156.135923 196.992641 0.780392
157.447848 192.467123 0.800000
161.500000 195.000000 0.800000
266.955940 95.009412 0.301961
259.364438 97.274754 0.290196
265.413071 83.000000 0.305882
422.625000 480.500000 0.756863
421.500000 480.500000 0.760784
422.000000 479.500000 0.890196
40.000000 386.555990 0.807843
38.062500 388.500000 0.807843
37.276467 387.096602 0.807843
90.591652 502.591652 0.823529
89.000000 502.000000 0.827451
90.000000 501.000000 0.803922
78.310807 453.157560 0.847059
77.653747 456.725811 0.866667
74.810265 455.373883 0.854902
112.696899 480.878291 0.533333
108.500000 479.500000 0.388235
110.081707 477.138703 0.372549
446.250000 500.000000 0.576471
445.500000 500.500000 0.584314
445.214696 499.259544 0.356863
515.765625 566.187500 0.772549
515.000000 561.000000 0.803922
521.000000 565.875000 0.752941
443.017121 483.920867 0.360784
442.000000 484.437500 0.384314
442.000000 483.404234 0.337255
499.883059 570.897934 0.831373
500.403267 563.382073 0.827451
506.000000 566.500000 0.807843
13.171103 13.342207 0.337255
10.000000 13.187500 0.333333
13.187500 10.000000 0.333333
346.086694 135.478327 0.384314
346.500000 137.500000 0.478431
344.000000 135.000000 0.376471
245.958333 139.111111 0.490196
245.500000 136.500000 0.352941
248.500000 138.500000 0.498039
83.500000 490.500000 0.776471
84.000000 486.500000 0.466667
87.500000 490.500000 0.694118
110.602573 491.218010 0.878431
116.816478 490.134373 0.894118
113.205146 496.936019 0.862745
21.625000 396.000000 0.788235
18.000000 397.000000 0.776471
18.000000 395.000000 0.792157
143.000000 246.000000 0.803922
143.500000 248.500000 0.800000
142.500000 247.400000 0.796078
403.699901 30.453746 0.647059
403.906250 29.562500 0.470588
404.746529 30.140609 0.607843
353.196429 38.327246 0.384314
353.642857 37.250000 0.435294
354.500000 37.500000 0.400000
302.664102 112.864309 0.337255
299.000000 116.500000 0.376471
299.000000 112.000000 0.376471
349.086988 34.762686 0.372549
350.500000 34.500000 0.376471
350.298111 35.536500 0.388235
445.157930 378.930163 0.819608
432.806458 394.435207 0.823529
435.355120 374.776377 0.823529
402.093218 508.675519 0.866667
393.212385 503.434861 0.882353
397.470250 497.905586 0.886275
86.750000 468.000000 0.882353
91.609621 466.316163 0.862745
88.500000 471.500000 0.917647
37.276467 390.817248 0.811765
35.500000 392.500000 0.807843
35.000000 389.000000 0.807843
115.000000 484.500000 0.729412
111.500000 485.000000 0.768627
166.426286 498.159693 0.854902
174.124172 501.002761 0.854902
172.103966 507.736781 0.862745
128.498356 450.735748 0.337255
128.097826 445.619565 0.400000
131.760870 448.434783 0.317647
176.013704 436.847593 0.874510
172.820198 435.655685 0.870588
174.113414 431.576493 0.878431
467.520622 178.247427 0.784314
471.000000 180.318182 0.807843
466.000000 182.000000 0.803922
495.000000 184.000000 0.803922
490.789868 180.673390 0.815686
494.250000 180.916667 0.803922
390.456980 40.426246 0.627451
391.107143 35.571429 0.596078
393.998016 37.042014 0.588235
471.893352 279.616641 0.823529
467.992926 279.687171 0.807843
469.000000 277.000000 0.819608
459.596586 165.833185 0.788235
463.000000 167.000000 0.803922
459.833333 168.166667 0.796078
354.750000 27.750000 0.674510
353.500000 26.000000 0.309804
355.500000 24.500000 0.313725
403.115379 17.083055 0.313725
400.125845 22.164274 0.317647
397.284520 17.953217 0.321569
285.075802 144.153709 0.454902
282.750000 142.500000 0.352941
285.165727 141.301338 0.454902
183.231914 42.073011 0.223529
183.076326 36.158186 0.219608
188.244641 38.929457 0.219608
429.076188 166.397419 0.800000
432.000000 163.500000 0.796078
432.305556 166.611111 0.800000
390.704577 182.655841 0.819608
389.486379 178.289397 0.823529
393.273071 178.920512 0.807843
467.204864 14.010169 0.721569
462.593853 13.477828 0.713725
465.667860 10.000000 0.678431
437.500000 163.500000 0.796078
507.582248 37.287774 0.549020
505.000000 38.000000 0.427451
505.570862 35.518707 0.352941
415.305440 27.833832 0.345098
414.903880 25.042658 0.329412
418.279511 25.218796 0.341176
364.000000 164.500000 0.800000
363.500000 165.500000 0.803922
363.000000 165.000000 0.803922
211.500000 317.500000 0.925490
207.750000 319.250000 0.878431
205.509227 316.366074 0.870588
164.416784 304.655400 0.745098
166.632922 303.945130 0.752941
166.192643 306.159419 0.749020
264.082932 452.583322 0.541176
261.904003 448.974624 0.564706
265.921930 445.147814 0.752941
151.247680 346.731441 0.792157
153.500000 348.500000 0.800000
151.436851 349.588880 0.800000
35.803057 301.237316 0.741176
49.234573 311.097202 0.752941
26.614993 328.619292 0.690196
398.961898 241.699707 0.745098
395.902271 235.704973 0.768627
405.139932 239.221023 0.764706
392.000000 457.735356 0.439216
388.760222 458.843025 0.427451
389.500000 455.500000 0.380392
164.535486 12.603401 0.588235
163.115608 10.000000 0.552941
165.955364 10.000000 0.588235
170.542969 10.976563 0.258824
170.214998 10.000000 0.258824
171.634876 10.000000 0.211765
125.386969 17.422180 0.596078
118.546559 18.779753 0.603922
121.939146 14.930529 0.607843
177.383190 39.267402 0.223529
181.867533 47.830426 0.227451
158.120424 77.216261 0.631373
171.091400 12.163985 0.203922
172.152093 12.929282 0.227451
170.873892 13.583151 0.294118
395.750000 448.200000 0.396078
395.250000 448.750000 0.396078
394.500000 448.500000 0.325490
460.000000 489.500000 0.388235
463.500000 489.500000 0.745098
463.500000 493.000000 0.494118
336.186435 313.384452 0.827451
331.000000 314.250000 0.800000
378.000000 186.000000 0.800000
383.000000 184.500000 0.807843
384.000000 189.000000 0.800000
140.729310 247.243103 0.784314
142.000000 246.000000 0.800000
261.934630 142.369646 0.333333
259.220528 145.001618 0.384314
258.257887 141.489198 0.325490
428.877862 485.074356 0.435294
431.500000 484.500000 0.384314
430.723215 487.226377 0.490196
467.449349 488.100488 0.901961
463.656238 487.025020 0.901961
420.250000 480.125000 0.776471
457.424787 484.445802 0.909804
455.622115 484.366884 0.937255
455.920515 482.637200 0.898039
83.000000 580.569444 0.800000
81.237599 581.159722 0.784314
82.500000 579.500000 0.807843
[...]
CELL_DATA 28433
SCALARS scalars float 1
LOOKUP_TABLE lut
0.0000000000
0.0000351716
0.0000703433
0.0001055149
0.0001406866
0.0001758582
0.0002110298
0.0002462015
0.0002813731
0.0003165447
0.0003517164
0.0003868880
0.0004220597
0.0004572313
0.0004924029
0.0005275746
0.0005627462
0.0005979178
0.0006330895
0.0006682611
0.0007034328
0.0007386044
0.0007737760
0.0008089477
0.0008441193
0.0008792909
0.0009144626
0.0009496342
0.0009848059
0.0010199775
0.0010551491
0.0010903208
0.0011254924
0.0011606640
0.0011958357
0.0012310073
0.0012661790
0.0013013506
0.0013365222
0.0013716939
0.0014068655
0.0014420371
0.0014772088
0.0015123804
0.0015475521
0.0015827237
0.0016178953
0.0016530670
0.0016882386
0.0017234102
0.0017585819
0.0017937535
0.0018289252
0.0018640968
0.0018992684
0.0019344401
0.0019696117
0.0020047833
0.0020399550
0.0020751266
0.0021102983
0.0021454699
0.0021806415
0.0022158132
0.0022509848
0.0022861564
0.0023213281
0.0023564997
0.0023916714
0.0024268430
0.0024620146
0.0024971863
0.0025323579
0.0025675295
0.0026027012
0.0026378728
0.0026730445
0.0027082161
0.0027433877
0.0027785594
0.0028137310
0.0028489026
0.0028840743
0.0029192459
0.0029544176
0.0029895892
0.0030247608
0.0030599325
0.0030951041
0.0031302757
0.0031654474
0.0032006190
0.0032357907
0.0032709623
0.0033061339
0.0033413056
0.0033764772
0.0034116488
0.0034468205
0.0034819921
0.0035171638
0.0035523354
0.0035875070
0.0036226787
0.0036578503
0.0036930219
0.0037281936
0.0037633652
0.0037985369
0.0038337085
0.0038688801
0.0039040518
0.0039392234
0.0039743950
0.0040095667
0.0040447383
0.0040799100
0.0041150816
0.0041502532
0.0041854249
0.0042205965
0.0042557681
0.0042909398
0.0043261114
0.0043612831
0.0043964547
0.0044316263
0.0044667980
0.0045019696
0.0045371412
0.0045723129
0.0046074845
0.0046426562
0.0046778278
0.0047129994
0.0047481711
0.0047833427
0.0048185144
0.0048536860
0.0048888576
0.0049240293
0.0049592009
0.0049943725
0.0050295442
0.0050647158
0.0050998875
0.0051350591
0.0051702307
0.0052054024
0.0052405740
0.0052757456
0.0053109173
0.0053460889
0.0053812606
0.0054164322
0.0054516038
0.0054867755
0.0055219471
0.0055571187
0.0055922904
0.0056274620
0.0056626337
0.0056978053
0.0057329769
0.0057681486
0.0058033202
0.0058384918
0.0058736635
0.0059088351
0.0059440068
0.0059791784
0.0060143500
0.0060495217
0.0060846933
0.0061198649
0.0061550366
0.0061902082
0.0062253799
0.0062605515
0.0062957231
0.0063308948
0.0063660664
0.0064012380
0.0064364097
0.0064715813
0.0065067530
0.0065419246
0.0065770962
0.0066122679
0.0066474395
0.0066826111
0.0067177828
0.0067529544
0.0067881261
0.0068232977
0.0068584693
0.0068936410
0.0069288126
0.0069639842
0.0069991559
0.0070343275
0.0070694992
0.0071046708
0.0071398424
0.0071750141
0.0072101857
0.0072453573
0.0072805290
0.0073157006
0.0073508723
0.0073860439
0.0074212155
0.0074563872
0.0074915588
0.0075267304
0.0075619021
0.0075970737
0.0076322454
0.0076674170
0.0077025886
0.0077377603
0.0077729319
0.0078081035
0.0078432752
0.0078784468
0.0079136185
0.0079487901
0.0079839617
0.0080191334
0.0080543050
0.0080894766
0.0081246483
0.0081598199
0.0081949916
0.0082301632
0.0082653348
0.0083005065
0.0083356781
0.0083708497
0.0084060214
0.0084411930
0.0084763647
0.0085115363
0.0085467079
0.0085818796
0.0086170512
0.0086522228
0.0086873945
0.0087225661
0.0087577378
0.0087929094
0.0088280810
0.0088632527
0.0088984243
0.0089335959
0.0089687676
0.0090039392
0.0090391109
0.0090742825
0.0091094541
0.0091446258
0.0091797974
0.0092149690
0.0092501407
0.0092853123
0.0093204840
0.0093556556
0.0093908272
0.0094259989
0.0094611705
0.0094963421
0.0095315138
0.0095666854
0.0096018571
0.0096370287
0.0096722003
0.0097073720
0.0097425436
0.0097777153
0.0098128869
0.0098480585
0.0098832302
0.0099184018
0.0099535734
0.0099887451
0.0100239167
0.0100590884
0.0100942600
0.0101294316
0.0101646033
0.0101997749
0.0102349465
0.0102701182
0.0103052898
0.0103404615
0.0103756331
0.0104108047
0.0104459764
0.0104811480
0.0105163196
0.0105514913
0.0105866629
0.0106218346
0.0106570062
0.0106921778
0.0107273495
0.0107625211
0.0107976927
0.0108328644
0.0108680360
0.0109032077
0.0109383793
0.0109735509
0.0110087226
0.0110438942
0.0110790658
0.0111142375
0.0111494091
0.0111845808
0.0112197524
0.0112549240
0.0112900957
0.0113252673
0.0113604389
0.0113956106
0.0114307822
0.0114659539
0.0115011255
0.0115362971
0.0115714688
0.0116066404
0.0116418120
0.0116769837
0.0117121553
0.0117473270
0.0117824986
0.0118176702
0.0118528419
0.0118880135
0.0119231851
0.0119583568
0.0119935284
0.0120287001
0.0120638717
0.0120990433
0.0121342150
0.0121693866
0.0122045582
0.0122397299
0.0122749015
0.0123100732
0.0123452448
0.0123804164
0.0124155881
0.0124507597
0.0124859313
0.0125211030
0.0125562746
0.0125914463
0.0126266179
0.0126617895
0.0126969612
0.0127321328
0.0127673044
0.0128024761
0.0128376477
0.0128728194
0.0129079910
0.0129431626
0.0129783343
0.0130135059
0.0130486775
0.0130838492
0.0131190208
0.0131541925
0.0131893641
0.0132245357
0.0132597074
0.0132948790
0.0133300506
0.0133652223
0.0134003939
0.0134355656
0.0134707372
0.0135059088
0.0135410805
0.0135762521
0.0136114237
0.0136465954
0.0136817670
0.0137169387
0.0137521103
0.0137872819
0.0138224536
0.0138576252
0.0138927968
0.0139279685
0.0139631401
0.0139983118
0.0140334834
0.0140686550
0.0141038267
0.0141389983
0.0141741699
0.0142093416
0.0142445132
0.0142796849
0.0143148565
0.0143500281
0.0143851998
0.0144203714
0.0144555431
0.0144907147
0.0145258863
0.0145610580
0.0145962296
0.0146314012
0.0146665729
0.0147017445
0.0147369162
0.0147720878
0.0148072594
0.0148424311
0.0148776027
0.0149127743
0.0149479460
0.0149831176
0.0150182893
0.0150534609
0.0150886325
0.0151238042
0.0151589758
0.0151941474
0.0152293191
0.0152644907
0.0152996624
0.0153348340
0.0153700056
0.0154051773
0.0154403489
0.0154755205
0.0155106922
0.0155458638
0.0155810355
0.0156162071
0.0156513787
0.0156865504
0.0157217220
0.0157568936
0.0157920653
0.0158272369
0.0158624086
0.0158975802
0.0159327518
0.0159679235
0.0160030951
0.0160382667
0.0160734384
0.0161086100
0.0161437817
0.0161789533
0.0162141249
0.0162492966
0.0162844682
0.0163196398
0.0163548115
0.0163899831
0.0164251548
0.0164603264
0.0164954980
0.0165306697
0.0165658413
0.0166010129
0.0166361846
0.0166713562
0.0167065279
0.0167416995
0.0167768711
0.0168120428
0.0168472144
0.0168823860
0.0169175577
0.0169527293
0.0169879010
0.0170230726
0.0170582442
0.0170934159
0.0171285875
0.0171637591
0.0171989308
0.0172341024
0.0172692741
0.0173044457
0.0173396173
0.0173747890
0.0174099606
0.0174451322
0.0174803039
0.0175154755
0.0175506472
0.0175858188
0.0176209904
0.0176561621
0.0176913337
0.0177265053
0.0177616770
0.0177968486
0.0178320203
0.0178671919
0.0179023635
0.0179375352
0.0179727068
0.0180078784
0.0180430501
0.0180782217
0.0181133934
0.0181485650
0.0181837366
0.0182189083
0.0182540799
0.0182892515
0.0183244232
0.0183595948
0.0183947665
0.0184299381
0.0184651097
0.0185002814
0.0185354530
0.0185706246
0.0186057963
0.0186409679
0.0186761396
0.0187113112
0.0187464828
0.0187816545
0.0188168261
0.0188519977
0.0188871694
0.0189223410
0.0189575127
0.0189926843
0.0190278559
0.0190630276
0.0190981992
0.0191333708
0.0191685425
0.0192037141
0.0192388858
0.0192740574
0.0193092290
0.0193444007
0.0193795723
0.0194147440
0.0194499156
0.0194850872
0.0195202589
0.0195554305
0.0195906021
0.0196257738
0.0196609454
0.0196961171
0.0197312887
0.0197664603
0.0198016320
0.0198368036
0.0198719752
0.0199071469
0.0199423185
0.0199774902
0.0200126618
0.0200478334
0.0200830051
0.0201181767
0.0201533483
0.0201885200
0.0202236916
0.0202588633
0.0202940349
0.0203292065
0.0203643782
0.0203995498
0.0204347214
0.0204698931
0.0205050647
0.0205402364
0.0205754080
0.0206105796
0.0206457513
0.0206809229
0.0207160945
0.0207512662
0.0207864378
0.0208216095
0.0208567811
0.0208919527
0.0209271244
0.0209622960
0.0209974676
0.0210326393
0.0210678109
0.0211029826
0.0211381542
0.0211733258
0.0212084975
0.0212436691
0.0212788407
0.0213140124
0.0213491840
0.0213843557
0.0214195273
0.0214546989
0.0214898706
0.0215250422
0.0215602138
0.0215953855
0.0216305571
0.0216657288
0.0217009004
0.0217360720
0.0217712437
0.0218064153
0.0218415869
0.0218767586
0.0219119302
0.0219471019
0.0219822735
0.0220174451
0.0220526168
0.0220877884
0.0221229600
0.0221581317
0.0221933033
0.0222284750
0.0222636466
0.0222988182
0.0223339899
0.0223691615
0.0224043331
0.0224395048
0.0224746764
0.0225098481
0.0225450197
0.0225801913
0.0226153630
0.0226505346
0.0226857062
0.0227208779
0.0227560495
0.0227912212
0.0228263928
0.0228615644
0.0228967361
0.0229319077
0.0229670793
0.0230022510
0.0230374226
0.0230725943
0.0231077659
0.0231429375
0.0231781092
0.0232132808
0.0232484524
0.0232836241
0.0233187957
0.0233539674
0.0233891390
0.0234243106
0.0234594823
0.0234946539
0.0235298255
0.0235649972
0.0236001688
0.0236353405
0.0236705121
0.0237056837
0.0237408554
0.0237760270
0.0238111986
0.0238463703
0.0238815419
0.0239167136
0.0239518852
0.0239870568
0.0240222285
0.0240574001
0.0240925718
0.0241277434
0.0241629150
0.0241980867
0.0242332583
0.0242684299
0.0243036016
0.0243387732
0.0243739449
0.0244091165
0.0244442881
0.0244794598
0.0245146314
0.0245498030
0.0245849747
0.0246201463
0.0246553180
0.0246904896
0.0247256612
0.0247608329
0.0247960045
0.0248311761
0.0248663478
0.0249015194
0.0249366911
0.0249718627
0.0250070343
0.0250422060
0.0250773776
0.0251125492
0.0251477209
0.0251828925
0.0252180642
0.0252532358
0.0252884074
0.0253235791
0.0253587507
0.0253939223
0.0254290940
0.0254642656
0.0254994373
0.0255346089
0.0255697805
0.0256049522
0.0256401238
0.0256752954
0.0257104671
0.0257456387
0.0257808104
0.0258159820
0.0258511536
0.0258863253
0.0259214969
0.0259566685
0.0259918402
0.0260270118
0.0260621835
0.0260973551
0.0261325267
0.0261676984
0.0262028700
0.0262380416
0.0262732133
0.0263083849
0.0263435566
0.0263787282
0.0264138998
0.0264490715
0.0264842431
0.0265194147
0.0265545864
0.0265897580
0.0266249297
0.0266601013
0.0266952729
0.0267304446
0.0267656162
0.0268007878
0.0268359595
0.0268711311
0.0269063028
0.0269414744
0.0269766460
0.0270118177
0.0270469893
0.0270821609
0.0271173326
0.0271525042
0.0271876759
0.0272228475
0.0272580191
0.0272931908
0.0273283624
0.0273635340
0.0273987057
0.0274338773
0.0274690490
0.0275042206
0.0275393922
0.0275745639
0.0276097355
0.0276449071
0.0276800788
0.0277152504
0.0277504221
0.0277855937
0.0278207653
0.0278559370
0.0278911086
0.0279262802
0.0279614519
0.0279966235
0.0280317952
0.0280669668
0.0281021384
0.0281373101
0.0281724817
0.0282076533
0.0282428250
0.0282779966
0.0283131683
0.0283483399
0.0283835115
0.0284186832
0.0284538548
0.0284890264
0.0285241981
0.0285593697
0.0285945414
0.0286297130
0.0286648846
0.0287000563
0.0287352279
0.0287703995
0.0288055712
0.0288407428
0.0288759145
0.0289110861
0.0289462577
0.0289814294
0.0290166010
0.0290517727
0.0290869443
0.0291221159
0.0291572876
0.0291924592
0.0292276308
0.0292628025
0.0292979741
0.0293331458
0.0293683174
0.0294034890
0.0294386607
0.0294738323
0.0295090039
0.0295441756
0.0295793472
0.0296145189
0.0296496905
0.0296848621
0.0297200338
0.0297552054
0.0297903770
0.0298255487
0.0298607203
0.0298958920
0.0299310636
0.0299662352
0.0300014069
0.0300365785
0.0300717501
0.0301069218
0.0301420934
0.0301772651
0.0302124367
0.0302476083
0.0302827800
0.0303179516
0.0303531232
0.0303882949
0.0304234665
0.0304586382
0.0304938098
0.0305289814
0.0305641531
0.0305993247
0.0306344963
0.0306696680
0.0307048396
0.0307400113
0.0307751829
0.0308103545
0.0308455262
0.0308806978
0.0309158694
0.0309510411
0.0309862127
0.0310213844
0.0310565560
0.0310917276
0.0311268993
0.0311620709
0.0311972425
0.0312324142
0.0312675858
0.0313027575
0.0313379291
0.0313731007
0.0314082724
0.0314434440
0.0314786156
0.0315137873
0.0315489589
0.0315841306
0.0316193022
0.0316544738
0.0316896455
0.0317248171
0.0317599887
0.0317951604
0.0318303320
0.0318655037
0.0319006753
0.0319358469
0.0319710186
0.0320061902
0.0320413618
0.0320765335
0.0321117051
0.0321468768
0.0321820484
0.0322172200
0.0322523917
0.0322875633
0.0323227349
0.0323579066
0.0323930782
0.0324282499
0.0324634215
0.0324985931
0.0325337648
0.0325689364
0.0326041080
0.0326392797
0.0326744513
0.0327096230
0.0327447946
0.0327799662
0.0328151379
0.0328503095
0.0328854811
0.0329206528
0.0329558244
0.0329909961
0.0330261677
0.0330613393
0.0330965110
0.0331316826
0.0331668542
0.0332020259
0.0332371975
0.0332723692
0.0333075408
0.0333427124
0.0333778841
0.0334130557
0.0334482273
0.0334833990
0.0335185706
0.0335537423
0.0335889139
0.0336240855
0.0336592572
0.0336944288
0.0337296005
0.0337647721
0.0337999437
0.0338351154
0.0338702870
0.0339054586
0.0339406303
0.0339758019
0.0340109736
0.0340461452
0.0340813168
0.0341164885
0.0341516601
0.0341868317
0.0342220034
0.0342571750
0.0342923467
0.0343275183
0.0343626899
0.0343978616
0.0344330332
0.0344682048
0.0345033765
0.0345385481
0.0345737198
0.0346088914
0.0346440630
0.0346792347
0.0347144063
0.0347495779
0.0347847496
0.0348199212
0.0348550929
0.0348902645
0.0349254361
0.0349606078
0.0349957794
0.0350309510
0.0350661227
0.0351012943
0.0351364660
0.0351716376
0.0352068092
0.0352419809
0.0352771525
0.0353123241
0.0353474958
0.0353826674
0.0354178391
0.0354530107
0.0354881823
0.0355233540
0.0355585256
0.0355936972
0.0356288689
0.0356640405
0.0356992122
0.0357343838
0.0357695554
0.0358047271
0.0358398987
0.0358750703
0.0359102420
0.0359454136
0.0359805853
0.0360157569
0.0360509285
0.0360861002
0.0361212718
0.0361564434
0.0361916151
0.0362267867
0.0362619584
0.0362971300
0.0363323016
0.0363674733
0.0364026449
0.0364378165
0.0364729882
0.0365081598
0.0365433315
0.0365785031
0.0366136747
0.0366488464
0.0366840180
0.0367191896
0.0367543613
0.0367895329
0.0368247046
0.0368598762
0.0368950478
0.0369302195
0.0369653911
0.0370005627
0.0370357344
0.0370709060
0.0371060777
0.0371412493
0.0371764209
0.0372115926
0.0372467642
0.0372819358
0.0373171075
0.0373522791
0.0373874508
0.0374226224
0.0374577940
0.0374929657
0.0375281373
0.0375633089
0.0375984806
0.0376336522
0.0376688239
0.0377039955
0.0377391671
0.0377743388
0.0378095104
0.0378446820
0.0378798537
0.0379150253
0.0379501970
0.0379853686
0.0380205402
0.0380557119
0.0380908835
0.0381260551
0.0381612268
0.0381963984
0.0382315701
0.0382667417
0.0383019133
0.0383370850
0.0383722566
0.0384074282
0.0384425999
0.0384777715
0.0385129432
0.0385481148
0.0385832864
0.0386184581
0.0386536297
0.0386888014
0.0387239730
0.0387591446
0.0387943163
0.0388294879
0.0388646595
0.0388998312
0.0389350028
0.0389701745
0.0390053461
0.0390405177
0.0390756894
0.0391108610
0.0391460326
0.0391812043
0.0392163759
0.0392515476
0.0392867192
0.0393218908
0.0393570625
0.0393922341
0.0394274057
0.0394625774
0.0394977490
0.0395329207
0.0395680923
0.0396032639
0.0396384356
0.0396736072
0.0397087788
0.0397439505
0.0397791221
0.0398142938
0.0398494654
0.0398846370
0.0399198087
0.0399549803
0.0399901519
0.0400253236
0.0400604952
0.0400956669
0.0401308385
0.0401660101
0.0402011818
0.0402363534
0.0402715250
0.0403066967
0.0403418683
0.0403770400
0.0404122116
0.0404473832
0.0404825549
0.0405177265
0.0405528981
0.0405880698
0.0406232414
0.0406584131
0.0406935847
0.0407287563
0.0407639280
0.0407990996
0.0408342712
0.0408694429
0.0409046145
0.0409397862
0.0409749578
0.0410101294
0.0410453011
0.0410804727
0.0411156443
0.0411508160
0.0411859876
0.0412211593
0.0412563309
0.0412915025
0.0413266742
0.0413618458
0.0413970174
0.0414321891
0.0414673607
0.0415025324
0.0415377040
0.0415728756
0.0416080473
0.0416432189
0.0416783905
0.0417135622
0.0417487338
0.0417839055
0.0418190771
0.0418542487
0.0418894204
0.0419245920
0.0419597636
0.0419949353
0.0420301069
0.0420652786
0.0421004502
0.0421356218
0.0421707935
0.0422059651
0.0422411367
0.0422763084
0.0423114800
0.0423466517
0.0423818233
0.0424169949
0.0424521666
0.0424873382
0.0425225098
0.0425576815
0.0425928531
0.0426280248
0.0426631964
0.0426983680
0.0427335397
0.0427687113
0.0428038829
0.0428390546
0.0428742262
0.0429093979
0.0429445695
0.0429797411
0.0430149128
0.0430500844
0.0430852560
0.0431204277
0.0431555993
0.0431907710
0.0432259426
0.0432611142
0.0432962859
0.0433314575
0.0433666292
0.0434018008
0.0434369724
0.0434721441
0.0435073157
0.0435424873
0.0435776590
0.0436128306
0.0436480023
0.0436831739
0.0437183455
0.0437535172
0.0437886888
0.0438238604
0.0438590321
0.0438942037
0.0439293754
0.0439645470
0.0439997186
0.0440348903
0.0440700619
0.0441052335
0.0441404052
0.0441755768
0.0442107485
0.0442459201
0.0442810917
0.0443162634
0.0443514350
0.0443866066
0.0444217783
0.0444569499
0.0444921216
0.0445272932
0.0445624648
0.0445976365
0.0446328081
0.0446679797
0.0447031514
0.0447383230
0.0447734947
0.0448086663
0.0448438379
0.0448790096
0.0449141812
0.0449493528
0.0449845245
0.0450196961
0.0450548678
0.0450900394
0.0451252110
0.0451603827
0.0451955543
0.0452307259
0.0452658976
0.0453010692
0.0453362409
0.0453714125
0.0454065841
0.0454417558
0.0454769274
0.0455120990
0.0455472707
0.0455824423
0.0456176140
0.0456527856
0.0456879572
0.0457231289
0.0457583005
0.0457934721
0.0458286438
0.0458638154
0.0458989871
0.0459341587
0.0459693303
0.0460045020
0.0460396736
0.0460748452
0.0461100169
0.0461451885
0.0461803602
0.0462155318
0.0462507034
0.0462858751
0.0463210467
0.0463562183
0.0463913900
0.0464265616
0.0464617333
0.0464969049
0.0465320765
0.0465672482
0.0466024198
0.0466375914
0.0466727631
0.0467079347
0.0467431064
0.0467782780
0.0468134496
0.0468486213
0.0468837929
0.0469189645
0.0469541362
0.0469893078
0.0470244795
0.0470596511
0.0470948227
0.0471299944
0.0471651660
0.0472003376
0.0472355093
0.0472706809
0.0473058526
0.0473410242
0.0473761958
0.0474113675
0.0474465391
0.0474817107
0.0475168824
0.0475520540
0.0475872257
0.0476223973
0.0476575689
0.0476927406
0.0477279122
0.0477630838
0.0477982555
0.0478334271
0.0478685988
0.0479037704
0.0479389420
0.0479741137
0.0480092853
0.0480444569
0.0480796286
0.0481148002
0.0481499719
0.0481851435
0.0482203151
0.0482554868
0.0482906584
0.0483258301
0.0483610017
0.0483961733
0.0484313450
0.0484665166
0.0485016882
0.0485368599
0.0485720315
0.0486072032
0.0486423748
0.0486775464
0.0487127181
0.0487478897
0.0487830613
0.0488182330
0.0488534046
0.0488885763
0.0489237479
0.0489589195
0.0489940912
0.0490292628
0.0490644344
0.0490996061
0.0491347777
0.0491699494
0.0492051210
0.0492402926
0.0492754643
0.0493106359
0.0493458075
0.0493809792
0.0494161508
0.0494513225
0.0494864941
0.0495216657
0.0495568374
0.0495920090
0.0496271806
0.0496623523
0.0496975239
0.0497326956
0.0497678672
0.0498030388
0.0498382105
0.0498733821
0.0499085537
0.0499437254
0.0499788970
0.0500140687
0.0500492403
0.0500844119
0.0501195836
0.0501547552
0.0501899268
0.0502250985
0.0502602701
0.0502954418
0.0503306134
0.0503657850
0.0504009567
0.0504361283
0.0504712999
0.0505064716
0.0505416432
0.0505768149
0.0506119865
0.0506471581
0.0506823298
0.0507175014
0.0507526730
0.0507878447
0.0508230163
0.0508581880
0.0508933596
0.0509285312
0.0509637029
0.0509988745
0.0510340461
0.0510692178
0.0511043894
0.0511395611
0.0511747327
0.0512099043
0.0512450760
0.0512802476
0.0513154192
0.0513505909
0.0513857625
0.0514209342
0.0514561058
0.0514912774
0.0515264491
0.0515616207
0.0515967923
0.0516319640
0.0516671356
0.0517023073
0.0517374789
0.0517726505
0.0518078222
0.0518429938
0.0518781654
0.0519133371
0.0519485087
0.0519836804
0.0520188520
0.0520540236
0.0520891953
0.0521243669
0.0521595385
0.0521947102
0.0522298818
0.0522650535
0.0523002251
0.0523353967
0.0523705684
0.0524057400
0.0524409116
0.0524760833
0.0525112549
0.0525464266
0.0525815982
0.0526167698
0.0526519415
0.0526871131
0.0527222847
0.0527574564
0.0527926280
0.0528277997
0.0528629713
0.0528981429
0.0529333146
0.0529684862
0.0530036579
0.0530388295
0.0530740011
0.0531091728
0.0531443444
0.0531795160
0.0532146877
0.0532498593
0.0532850310
0.0533202026
0.0533553742
0.0533905459
0.0534257175
0.0534608891
0.0534960608
0.0535312324
0.0535664041
0.0536015757
0.0536367473
0.0536719190
0.0537070906
0.0537422622
0.0537774339
0.0538126055
0.0538477772
0.0538829488
0.0539181204