# vtk DataFile Version 2.0
grid description
ASCII
DATASET UNSTRUCTURED_GRID

POINTS 81 double
10.000000 111.000000 0.000000
10.000000 10.000000 0.000000
111.000000 10.000000 0.000000
244.000000 232.000000 0.000000
261.000000 179.000000 0.000000
269.000000 183.000000 0.000000
313.000000 518.000000 0.000000
212.000000 518.000000 0.000000
205.000000 327.000000 0.000000
111.000000 518.000000 0.000000
492.000000 278.000000 0.000000
453.000000 262.000000 0.000000
515.000000 10.000000 0.000000
338.000000 255.000000 0.000000
392.000000 269.000000 0.000000
190.000000 296.000000 0.000000
191.000000 294.000000 0.000000
531.000000 295.000000 0.000000
721.000000 111.000000 0.000000
721.000000 212.000000 0.000000
511.000000 286.000000 0.000000
717.000000 10.000000 0.000000
616.000000 10.000000 0.000000
330.000000 209.000000 0.000000
285.000000 241.000000 0.000000
721.000000 10.000000 0.000000
414.000000 518.000000 0.000000
218.000000 234.000000 0.000000
206.000000 238.000000 0.000000
212.000000 235.000000 0.000000
505.000000 300.000000 0.000000
515.000000 518.000000 0.000000
160.000000 171.000000 0.000000
167.000000 168.000000 0.000000
543.000000 310.000000 0.000000
197.000000 247.000000 0.000000
140.000000 222.000000 0.000000
717.000000 518.000000 0.000000
616.000000 518.000000 0.000000
721.000000 414.000000 0.000000
10.000000 515.000000 0.000000
10.000000 414.000000 0.000000
10.000000 518.000000 0.000000
721.000000 515.000000 0.000000
721.000000 518.000000 0.000000
152.000000 258.000000 0.000000
147.000000 246.000000 0.000000
191.000000 257.000000 0.000000
317.000000 203.000000 0.000000
414.000000 10.000000 0.000000
258.000000 234.000000 0.000000
278.000000 186.000000 0.000000
224.000000 232.000000 0.000000
226.000000 167.000000 0.000000
244.000000 173.000000 0.000000
417.000000 246.000000 0.000000
382.000000 231.000000 0.000000
568.000000 316.000000 0.000000
504.000000 299.000000 0.000000
209.000000 164.000000 0.000000
313.000000 10.000000 0.000000
146.000000 185.000000 0.000000
141.000000 197.000000 0.000000
177.000000 165.000000 0.000000
188.000000 163.000000 0.000000
189.000000 265.000000 0.000000
163.000000 276.000000 0.000000
153.000000 177.000000 0.000000
230.000000 232.000000 0.000000
10.000000 313.000000 0.000000
10.000000 212.000000 0.000000
143.000000 234.000000 0.000000
177.000000 295.000000 0.000000
188.000000 275.000000 0.000000
563.000000 309.000000 0.000000
304.000000 198.000000 0.000000
721.000000 313.000000 0.000000
584.000000 320.000000 0.000000
212.000000 10.000000 0.000000
139.000000 210.000000 0.000000
520.000000 291.000000 0.000000

CELLS 132 528
3 0 1 2
3 3 4 5
3 6 7 8
3 8 7 9
3 10 11 12
3 13 14 6
3 8 15 16
3 17 18 19
3 20 18 17
3 21 18 22
3 23 13 24
3 18 21 25
3 14 26 6
3 27 28 29
3 26 30 31
3 32 2 33
3 30 17 34
3 35 36 28
3 37 38 39
3 9 40 41
3 9 42 40
3 37 43 44
3 37 39 43
3 45 46 47
3 48 49 23
3 41 8 9
3 50 51 24
3 52 53 54
3 20 10 12
3 8 13 6
3 55 56 49
3 34 57 31
3 30 26 14
3 56 14 13
3 58 30 14
3 52 59 53
3 53 60 54
3 0 61 62
3 28 63 64
3 65 66 45
3 67 33 28
3 30 34 31
3 52 54 68
3 5 51 50
3 69 70 71
3 69 72 41
3 72 66 73
3 8 50 24
3 3 54 4
3 58 14 11
3 14 56 55
3 74 34 17
3 30 58 20
3 22 20 12
3 20 58 10
3 8 16 50
3 75 51 60
3 19 76 77
3 31 57 77
3 49 56 23
3 49 12 55
3 29 64 59
3 78 59 64
3 68 3 16
3 8 41 72
3 65 73 66
3 16 72 73
3 28 33 63
3 67 32 33
3 32 0 2
3 11 10 58
3 60 4 54
3 60 51 4
3 3 5 50
3 4 51 5
3 78 53 59
3 78 60 53
3 46 71 35
3 36 79 28
3 8 72 15
3 65 45 47
3 8 24 13
3 68 54 3
3 18 20 22
3 80 30 20
3 77 39 38
3 38 31 77
3 48 23 24
3 56 13 23
3 24 75 48
3 24 51 75
3 57 34 74
3 11 55 12
3 11 14 55
3 2 63 33
3 78 64 63
3 65 27 73
3 35 71 36
3 50 16 3
3 15 72 16
3 35 28 27
3 70 62 79
3 70 0 62
3 62 61 67
3 28 79 62
3 61 0 67
3 70 36 71
3 70 79 36
3 69 46 45
3 69 71 46
3 69 66 72
3 69 45 66
3 17 80 20
3 17 30 80
3 60 48 75
3 60 49 48
3 19 74 17
3 77 76 39
3 78 63 2
3 47 46 35
3 35 27 65
3 29 59 27
3 68 16 73
3 62 67 28
3 67 0 32
3 74 77 57
3 19 77 74
3 73 27 68
3 35 65 47
3 28 64 29
3 27 52 68
3 27 59 52

CELL_TYPES 132 
5 5 5 5 5 5 5 5 5 5 5 5 5 5 5 5 5 5 5 5 5 5 5 5 5 5 5 5 5 5 5 5 5 5 5 5 5 5 5 5 5 5 5 5 5 5 5 5 5 5 5 5 5 5 5 5 5 5 5 5 5 5 5 5 5 5 5 5 5 5 5 5 5 5 5 5 5 5 5 5 5 5 5 5 5 5 5 5 5 5 5 5 5 5 5 5 5 5 5 5 5 5 5 5 5 5 5 5 5 5 5 5 5 5 5 5 5 5 5 5 5 5 5 5 5 5 5 5 5 5 5 5 CELL_DATA 132
SCALARS scalars float 1
LOOKUP_TABLE gray_colors
0.00
0.98
0.00
0.00
0.00
0.00
0.53
0.00
0.00
0.00
0.98
0.00
0.00
0.47
0.00
0.01
0.90
0.98
0.00
0.00
0.00
0.00
0.00
0.97
0.00
0.00
0.98
0.99
0.00
0.00
0.00
0.00
0.00
0.98
0.55
0.99
0.00
0.01
1.00
0.96
0.99
0.00
0.98
0.98
0.00
0.00
0.94
0.01
0.99
0.98
0.97
0.92
0.91
0.00
0.91
0.01
0.00
0.00
0.01
0.00
0.00
1.00
0.01
0.01
0.01
0.93
0.89
0.99
0.68
0.00
0.94
0.00
0.00
0.98
0.34
0.00
0.00
0.98
0.98
0.86
0.96
0.01
0.97
0.00
0.93
0.00
0.00
0.98
0.98
0.98
0.97
0.86
0.00
0.97
0.01
0.01
0.03
0.99
0.01
0.87
0.16
0.01
0.00
0.73
0.98
0.01
0.02
0.01
0.01
0.01
0.01
0.01
0.52
0.95
0.00
0.00
0.01
0.00
0.00
0.96
0.03
0.99
0.02
1.00
0.01
0.92
0.02
0.01
0.27
0.99
0.27
0.98
LOOKUP_TABLE gray_colors 255
0.00 0.00 0.00 1.0
0.00 0.00 0.00 1.0
0.01 0.01 0.01 1.0
0.01 0.01 0.01 1.0
0.02 0.02 0.02 1.0
0.02 0.02 0.02 1.0
0.02 0.02 0.02 1.0
0.03 0.03 0.03 1.0
0.03 0.03 0.03 1.0
0.04 0.04 0.04 1.0
0.04 0.04 0.04 1.0
0.04 0.04 0.04 1.0
0.05 0.05 0.05 1.0
0.05 0.05 0.05 1.0
0.06 0.06 0.06 1.0
0.06 0.06 0.06 1.0
0.06 0.06 0.06 1.0
0.07 0.07 0.07 1.0
0.07 0.07 0.07 1.0
0.07 0.07 0.07 1.0
0.08 0.08 0.08 1.0
0.08 0.08 0.08 1.0
0.09 0.09 0.09 1.0
0.09 0.09 0.09 1.0
0.09 0.09 0.09 1.0
0.10 0.10 0.10 1.0
0.10 0.10 0.10 1.0
0.11 0.11 0.11 1.0
0.11 0.11 0.11 1.0
0.11 0.11 0.11 1.0
0.12 0.12 0.12 1.0
0.12 0.12 0.12 1.0
0.13 0.13 0.13 1.0
0.13 0.13 0.13 1.0
0.13 0.13 0.13 1.0
0.14 0.14 0.14 1.0
0.14 0.14 0.14 1.0
0.15 0.15 0.15 1.0
0.15 0.15 0.15 1.0
0.15 0.15 0.15 1.0
0.16 0.16 0.16 1.0
0.16 0.16 0.16 1.0
0.17 0.17 0.17 1.0
0.17 0.17 0.17 1.0
0.17 0.17 0.17 1.0
0.18 0.18 0.18 1.0
0.18 0.18 0.18 1.0
0.19 0.19 0.19 1.0
0.19 0.19 0.19 1.0
0.19 0.19 0.19 1.0
0.20 0.20 0.20 1.0
0.20 0.20 0.20 1.0
0.20 0.20 0.20 1.0
0.21 0.21 0.21 1.0
0.21 0.21 0.21 1.0
0.22 0.22 0.22 1.0
0.22 0.22 0.22 1.0
0.22 0.22 0.22 1.0
0.23 0.23 0.23 1.0
0.23 0.23 0.23 1.0
0.24 0.24 0.24 1.0
0.24 0.24 0.24 1.0
0.24 0.24 0.24 1.0
0.25 0.25 0.25 1.0
0.25 0.25 0.25 1.0
0.26 0.26 0.26 1.0
0.26 0.26 0.26 1.0
0.26 0.26 0.26 1.0
0.27 0.27 0.27 1.0
0.27 0.27 0.27 1.0
0.28 0.28 0.28 1.0
0.28 0.28 0.28 1.0
0.28 0.28 0.28 1.0
0.29 0.29 0.29 1.0
0.29 0.29 0.29 1.0
0.30 0.30 0.30 1.0
0.30 0.30 0.30 1.0
0.30 0.30 0.30 1.0
0.31 0.31 0.31 1.0
0.31 0.31 0.31 1.0
0.31 0.31 0.31 1.0
0.32 0.32 0.32 1.0
0.32 0.32 0.32 1.0
0.33 0.33 0.33 1.0
0.33 0.33 0.33 1.0
0.33 0.33 0.33 1.0
0.34 0.34 0.34 1.0
0.34 0.34 0.34 1.0
0.35 0.35 0.35 1.0
0.35 0.35 0.35 1.0
0.35 0.35 0.35 1.0
0.36 0.36 0.36 1.0
0.36 0.36 0.36 1.0
0.37 0.37 0.37 1.0
0.37 0.37 0.37 1.0
0.37 0.37 0.37 1.0
0.38 0.38 0.38 1.0
0.38 0.38 0.38 1.0
0.39 0.39 0.39 1.0
0.39 0.39 0.39 1.0
0.39 0.39 0.39 1.0
0.40 0.40 0.40 1.0
0.40 0.40 0.40 1.0
0.41 0.41 0.41 1.0
0.41 0.41 0.41 1.0
0.41 0.41 0.41 1.0
0.42 0.42 0.42 1.0
0.42 0.42 0.42 1.0
0.43 0.43 0.43 1.0
0.43 0.43 0.43 1.0
0.43 0.43 0.43 1.0
0.44 0.44 0.44 1.0
0.44 0.44 0.44 1.0
0.44 0.44 0.44 1.0
0.45 0.45 0.45 1.0
0.45 0.45 0.45 1.0
0.46 0.46 0.46 1.0
0.46 0.46 0.46 1.0
0.46 0.46 0.46 1.0
0.47 0.47 0.47 1.0
0.47 0.47 0.47 1.0
0.48 0.48 0.48 1.0
0.48 0.48 0.48 1.0
0.48 0.48 0.48 1.0
0.49 0.49 0.49 1.0
0.49 0.49 0.49 1.0
0.50 0.50 0.50 1.0
0.50 0.50 0.50 1.0
0.50 0.50 0.50 1.0
0.51 0.51 0.51 1.0
0.51 0.51 0.51 1.0
0.52 0.52 0.52 1.0
0.52 0.52 0.52 1.0
0.52 0.52 0.52 1.0
0.53 0.53 0.53 1.0
0.53 0.53 0.53 1.0
0.54 0.54 0.54 1.0
0.54 0.54 0.54 1.0
0.54 0.54 0.54 1.0
0.55 0.55 0.55 1.0
0.55 0.55 0.55 1.0
0.56 0.56 0.56 1.0
0.56 0.56 0.56 1.0
0.56 0.56 0.56 1.0
0.57 0.57 0.57 1.0
0.57 0.57 0.57 1.0
0.57 0.57 0.57 1.0
0.58 0.58 0.58 1.0
0.58 0.58 0.58 1.0
0.59 0.59 0.59 1.0
0.59 0.59 0.59 1.0
0.59 0.59 0.59 1.0
0.60 0.60 0.60 1.0
0.60 0.60 0.60 1.0
0.61 0.61 0.61 1.0
0.61 0.61 0.61 1.0
0.61 0.61 0.61 1.0
0.62 0.62 0.62 1.0
0.62 0.62 0.62 1.0
0.63 0.63 0.63 1.0
0.63 0.63 0.63 1.0
0.63 0.63 0.63 1.0
0.64 0.64 0.64 1.0
0.64 0.64 0.64 1.0
0.65 0.65 0.65 1.0
0.65 0.65 0.65 1.0
0.65 0.65 0.65 1.0
0.66 0.66 0.66 1.0
0.66 0.66 0.66 1.0
0.67 0.67 0.67 1.0
0.67 0.67 0.67 1.0
0.67 0.67 0.67 1.0
0.68 0.68 0.68 1.0
0.68 0.68 0.68 1.0
0.69 0.69 0.69 1.0
0.69 0.69 0.69 1.0
0.69 0.69 0.69 1.0
0.70 0.70 0.70 1.0
0.70 0.70 0.70 1.0
0.70 0.70 0.70 1.0
0.71 0.71 0.71 1.0
0.71 0.71 0.71 1.0
0.72 0.72 0.72 1.0
0.72 0.72 0.72 1.0
0.72 0.72 0.72 1.0
0.73 0.73 0.73 1.0
0.73 0.73 0.73 1.0
0.74 0.74 0.74 1.0
0.74 0.74 0.74 1.0
0.74 0.74 0.74 1.0
0.75 0.75 0.75 1.0
0.75 0.75 0.75 1.0
0.76 0.76 0.76 1.0
0.76 0.76 0.76 1.0
0.76 0.76 0.76 1.0
0.77 0.77 0.77 1.0
0.77 0.77 0.77 1.0
0.78 0.78 0.78 1.0
0.78 0.78 0.78 1.0
0.78 0.78 0.78 1.0
0.79 0.79 0.79 1.0
0.79 0.79 0.79 1.0
0.80 0.80 0.80 1.0
0.80 0.80 0.80 1.0
0.80 0.80 0.80 1.0
0.81 0.81 0.81 1.0
0.81 0.81 0.81 1.0
0.81 0.81 0.81 1.0
0.82 0.82 0.82 1.0
0.82 0.82 0.82 1.0
0.83 0.83 0.83 1.0
0.83 0.83 0.83 1.0
0.83 0.83 0.83 1.0
0.84 0.84 0.84 1.0
0.84 0.84 0.84 1.0
0.85 0.85 0.85 1.0
0.85 0.85 0.85 1.0
0.85 0.85 0.85 1.0
0.86 0.86 0.86 1.0
0.86 0.86 0.86 1.0
0.87 0.87 0.87 1.0
0.87 0.87 0.87 1.0
0.87 0.87 0.87 1.0
0.88 0.88 0.88 1.0
0.88 0.88 0.88 1.0
0.89 0.89 0.89 1.0
0.89 0.89 0.89 1.0
0.89 0.89 0.89 1.0
0.90 0.90 0.90 1.0
0.90 0.90 0.90 1.0
0.91 0.91 0.91 1.0
0.91 0.91 0.91 1.0
0.91 0.91 0.91 1.0
0.92 0.92 0.92 1.0
0.92 0.92 0.92 1.0
0.93 0.93 0.93 1.0
0.93 0.93 0.93 1.0
0.93 0.93 0.93 1.0
0.94 0.94 0.94 1.0
0.94 0.94 0.94 1.0
0.94 0.94 0.94 1.0
0.95 0.95 0.95 1.0
0.95 0.95 0.95 1.0
0.96 0.96 0.96 1.0
0.96 0.96 0.96 1.0
0.96 0.96 0.96 1.0
0.97 0.97 0.97 1.0
0.97 0.97 0.97 1.0
0.98 0.98 0.98 1.0
0.98 0.98 0.98 1.0
0.98 0.98 0.98 1.0
0.99 0.99 0.99 1.0
0.99 0.99 0.99 1.0
1.00 1.00 1.00 1.0
1.00 1.00 1.00 1.0
