# vtk DataFile Version 3.0
vtk output
ASCII
DATASET POLYDATA
POINTS 300 float
65.1754 278.702 0 65.3638 278.696 0 65.5514 278.678 0 
65.7375 278.648 0 65.9215 278.607 0 66.1024 278.555 0 
66.2798 278.491 0 66.4527 278.416 0 66.6207 278.331 0 
66.7829 278.235 0 66.9388 278.129 0 67.0877 278.013 0 
67.229 277.889 0 67.3623 277.755 0 67.4869 277.614 0 
67.6024 277.465 0 67.7084 277.309 0 67.8043 277.147 0 
67.8899 276.979 0 67.9647 276.806 0 68.0286 276.629 0 
68.0811 276.448 0 68.1223 276.264 0 68.1517 276.078 0 
68.1695 275.89 0 68.1754 275.702 0 68.1695 275.513 0 
68.1517 275.326 0 68.1223 275.139 0 68.0811 274.956 0 
68.0286 274.775 0 67.9647 274.597 0 67.8899 274.424 0 
67.8043 274.256 0 67.7084 274.094 0 67.6024 273.938 0 
67.4869 273.789 0 67.3623 273.648 0 67.229 273.515 0 
67.0877 273.39 0 66.9388 273.275 0 66.7829 273.169 0 
66.6207 273.073 0 66.4527 272.987 0 66.2798 272.912 0 
66.1024 272.848 0 65.9215 272.796 0 65.7375 272.755 0 
65.5514 272.725 0 65.3638 272.708 0 65.1754 272.702 0 
64.987 272.708 0 64.7994 272.725 0 64.6133 272.755 0 
64.4293 272.796 0 64.2484 272.848 0 64.071 272.912 0 
63.8981 272.987 0 63.7301 273.073 0 63.5679 273.169 0 
63.412 273.275 0 63.2631 273.39 0 63.1218 273.515 0 
62.9885 273.648 0 62.8639 273.789 0 62.7483 273.938 0 
62.6424 274.094 0 62.5465 274.256 0 62.4609 274.424 0 
62.3861 274.597 0 62.3222 274.775 0 62.2696 274.956 0 
62.2285 275.139 0 62.1991 275.326 0 62.1813 275.513 0 
62.1754 275.702 0 62.1813 275.89 0 62.1991 276.078 0 
62.2285 276.264 0 62.2696 276.448 0 62.3222 276.629 0 
62.3861 276.806 0 62.4609 276.979 0 62.5465 277.147 0 
62.6424 277.309 0 62.7483 277.465 0 62.8639 277.614 0 
62.9885 277.755 0 63.1218 277.889 0 63.2631 278.013 0 
63.412 278.129 0 63.5679 278.235 0 63.7301 278.331 0 
63.8981 278.416 0 64.071 278.491 0 64.2484 278.555 0 
64.4293 278.607 0 64.6133 278.648 0 64.7994 278.678 0 
64.987 278.696 0 176.53 290.51 0 176.718 290.504 0 
176.906 290.486 0 177.092 290.457 0 177.276 290.416 0 
177.457 290.363 0 177.634 290.299 0 177.807 290.224 0 
177.975 290.139 0 178.137 290.043 0 178.293 289.937 0 
178.442 289.822 0 178.584 289.697 0 178.717 289.564 0 
178.842 289.422 0 178.957 289.273 0 179.063 289.117 0 
179.159 288.955 0 179.244 288.787 0 179.319 288.614 0 
179.383 288.437 0 179.436 288.256 0 179.477 288.072 0 
179.506 287.886 0 179.524 287.698 0 179.53 287.51 0 
179.524 287.322 0 179.506 287.134 0 179.477 286.948 0 
179.436 286.764 0 179.383 286.583 0 179.319 286.406 0 
179.244 286.233 0 179.159 286.065 0 179.063 285.903 0 
178.957 285.747 0 178.842 285.598 0 178.717 285.456 0 
178.584 285.323 0 178.442 285.198 0 178.293 285.083 0 
178.137 284.977 0 177.975 284.881 0 177.807 284.796 0 
177.634 284.721 0 177.457 284.657 0 177.276 284.604 0 
177.092 284.563 0 176.906 284.534 0 176.718 284.516 0 
176.53 284.51 0 176.342 284.516 0 176.154 284.534 0 
175.968 284.563 0 175.784 284.604 0 175.603 284.657 0 
175.426 284.721 0 175.253 284.796 0 175.085 284.881 0 
174.923 284.977 0 174.767 285.083 0 174.618 285.198 0 
174.476 285.323 0 174.343 285.456 0 174.218 285.598 0 
174.103 285.747 0 173.997 285.903 0 173.901 286.065 0 
173.816 286.233 0 173.741 286.406 0 173.677 286.583 0 
173.624 286.764 0 173.583 286.948 0 173.554 287.134 0 
173.536 287.322 0 173.53 287.51 0 173.536 287.698 0 
173.554 287.886 0 173.583 288.072 0 173.624 288.256 0 
173.677 288.437 0 173.741 288.614 0 173.816 288.787 0 
173.901 288.955 0 173.997 289.117 0 174.103 289.273 0 
174.218 289.422 0 174.343 289.564 0 174.476 289.697 0 
174.618 289.822 0 174.767 289.937 0 174.923 290.043 0 
175.085 290.139 0 175.253 290.224 0 175.426 290.299 0 
175.603 290.363 0 175.784 290.416 0 175.968 290.457 0 
176.154 290.486 0 176.342 290.504 0 64.518 278.819 0 
64.7064 278.813 0 64.894 278.795 0 65.0802 278.766 0 
65.2641 278.724 0 65.4451 278.672 0 65.6224 278.608 0 
65.7954 278.533 0 65.9633 278.448 0 66.1255 278.352 0 
66.2814 278.246 0 66.4303 278.13 0 66.5717 278.006 0 
66.7049 277.872 0 66.8296 277.731 0 66.9451 277.582 0 
67.051 277.426 0 67.147 277.264 0 67.2325 277.096 0 
67.3074 276.923 0 67.3712 276.746 0 67.4238 276.565 0 
67.4649 276.381 0 67.4944 276.195 0 67.5121 276.007 0 
67.518 275.819 0 67.5121 275.63 0 67.4944 275.443 0 
67.4649 275.257 0 67.4238 275.073 0 67.3712 274.892 0 
67.3074 274.714 0 67.2325 274.541 0 67.147 274.373 0 
67.051 274.211 0 66.9451 274.055 0 66.8296 273.906 0 
66.7049 273.765 0 66.5717 273.632 0 66.4303 273.507 0 
66.2814 273.392 0 66.1255 273.286 0 65.9633 273.19 0 
65.7954 273.104 0 65.6224 273.029 0 65.4451 272.966 0 
65.2641 272.913 0 65.0802 272.872 0 64.894 272.842 0 
64.7064 272.825 0 64.518 272.819 0 64.3297 272.825 0 
64.142 272.842 0 63.9559 272.872 0 63.772 272.913 0 
63.591 272.966 0 63.4137 273.029 0 63.2407 273.104 0 
63.0728 273.19 0 62.9106 273.286 0 62.7547 273.392 0 
62.6058 273.507 0 62.4644 273.632 0 62.3311 273.765 0 
62.2065 273.906 0 62.091 274.055 0 61.9851 274.211 0 
61.8891 274.373 0 61.8036 274.541 0 61.7287 274.714 0 
61.6649 274.892 0 61.6123 275.073 0 61.5712 275.257 0 
61.5417 275.443 0 61.524 275.63 0 61.518 275.819 0 
61.524 276.007 0 61.5417 276.195 0 61.5712 276.381 0 
61.6123 276.565 0 61.6649 276.746 0 61.7287 276.923 0 
61.8036 277.096 0 61.8891 277.264 0 61.9851 277.426 0 
62.091 277.582 0 62.2065 277.731 0 62.3311 277.872 0 
62.4644 278.006 0 62.6058 278.13 0 62.7547 278.246 0 
62.9106 278.352 0 63.0728 278.448 0 63.2407 278.533 0 
63.4137 278.608 0 63.591 278.672 0 63.772 278.724 0 
63.9559 278.766 0 64.142 278.795 0 64.3297 278.813 0 

LINES 3 306
101 0 1 2 3 4 5 6 7 8 9 10 11 12 13 14 15 16 17 18 19 20 21 22 23 24 25 26 27 28 29 30 31 32 33 34 35 36 37 38 39 40 41 42 43 44 45 46 47 48 49 50 51 52 53 54 55 56 57 58 59 60 61 62 63 64 65 66 67 68 69 70 71 72 73 74 75 76 77 78 79 80 81 82 83 84 85 86 87 88 89 90 91 92 93 94 95 96 97 98 99 0 
101 100 101 102 103 104 105 106 107 108 109 110 111 112 113 114 115 116 117 118 119 120 121 122 123 124 125 126 127 128 129 130 131 132 133 134 135 136 137 138 139 140 141 142 143 144 145 146 147 148 149 150 151 152 153 154 155 156 157 158 159 160 161 162 163 164 165 166 167 168 169 170 171 172 173 174 175 176 177 178 179 180 181 182 183 184 185 186 187 188 189 190 191 192 193 194 195 196 197 198 199 100 
101 200 201 202 203 204 205 206 207 208 209 210 211 212 213 214 215 216 217 218 219 220 221 222 223 224 225 226 227 228 229 230 231 232 233 234 235 236 237 238 239 240 241 242 243 244 245 246 247 248 249 250 251 252 253 254 255 256 257 258 259 260 261 262 263 264 265 266 267 268 269 270 271 272 273 274 275 276 277 278 279 280 281 282 283 284 285 286 287 288 289 290 291 292 293 294 295 296 297 298 299 200 

POINT_DATA 300
SCALARS scales float
LOOKUP_TABLE default
6 6 6 6 6 6 6 6 6 
6 6 6 6 6 6 6 6 6 
6 6 6 6 6 6 6 6 6 
6 6 6 6 6 6 6 6 6 
6 6 6 6 6 6 6 6 6 
6 6 6 6 6 6 6 6 6 
6 6 6 6 6 6 6 6 6 
6 6 6 6 6 6 6 6 6 
6 6 6 6 6 6 6 6 6 
6 6 6 6 6 6 6 6 6 
6 6 6 6 6 6 6 6 6 
6 6 6 6 6 6 6 6 6 
6 6 6 6 6 6 6 6 6 
6 6 6 6 6 6 6 6 6 
6 6 6 6 6 6 6 6 6 
6 6 6 6 6 6 6 6 6 
6 6 6 6 6 6 6 6 6 
6 6 6 6 6 6 6 6 6 
6 6 6 6 6 6 6 6 6 
6 6 6 6 6 6 6 6 6 
6 6 6 6 6 6 6 6 6 
6 6 6 6 6 6 6 6 6 
6 6 6 6 6 6 6 6 6 
6 6 6 6 6 6 6 6 6 
6 6 6 6 6 6 6 6 6 
6 6 6 6 6 6 6 6 6 
6 6 6 6 6 6 6 6 6 
6 6 6 6 6 6 6 6 6 
6 6 6 6 6 6 6 6 6 
6 6 6 6 6 6 6 6 6 
6 6 6 6 6 6 6 6 6 
6 6 6 6 6 6 6 6 6 
6 6 6 6 6 6 6 6 6 
6 6 6 
FIELD FieldData 1
Colors 3 300 unsigned_char
153 0 153 153 0 153 153 0 153 
153 0 153 153 0 153 153 0 153 
153 0 153 153 0 153 153 0 153 
153 0 153 153 0 153 153 0 153 
153 0 153 153 0 153 153 0 153 
153 0 153 153 0 153 153 0 153 
153 0 153 153 0 153 153 0 153 
153 0 153 153 0 153 153 0 153 
153 0 153 153 0 153 153 0 153 
153 0 153 153 0 153 153 0 153 
153 0 153 153 0 153 153 0 153 
153 0 153 153 0 153 153 0 153 
153 0 153 153 0 153 153 0 153 
153 0 153 153 0 153 153 0 153 
153 0 153 153 0 153 153 0 153 
153 0 153 153 0 153 153 0 153 
153 0 153 153 0 153 153 0 153 
153 0 153 153 0 153 153 0 153 
153 0 153 153 0 153 153 0 153 
153 0 153 153 0 153 153 0 153 
153 0 153 153 0 153 153 0 153 
153 0 153 153 0 153 153 0 153 
153 0 153 153 0 153 153 0 153 
153 0 153 153 0 153 153 0 153 
153 0 153 153 0 153 153 0 153 
153 0 153 153 0 153 153 0 153 
153 0 153 153 0 153 153 0 153 
153 0 153 153 0 153 153 0 153 
153 0 153 153 0 153 153 0 153 
153 0 153 153 0 153 153 0 153 
153 0 153 153 0 153 153 0 153 
153 0 153 153 0 153 153 0 153 
153 0 153 153 0 153 153 0 153 
153 0 153 153 0 153 153 0 153 
153 0 153 153 0 153 153 0 153 
153 0 153 153 0 153 153 0 153 
153 0 153 153 0 153 153 0 153 
153 0 153 153 0 153 153 0 153 
153 0 153 153 0 153 153 0 153 
153 0 153 153 0 153 153 0 153 
153 0 153 153 0 153 153 0 153 
153 0 153 153 0 153 153 0 153 
153 0 153 153 0 153 153 0 153 
153 0 153 153 0 153 153 0 153 
153 0 153 153 0 153 153 0 153 
153 0 153 153 0 153 153 0 153 
153 0 153 153 0 153 153 0 153 
153 0 153 153 0 153 153 0 153 
153 0 153 153 0 153 153 0 153 
153 0 153 153 0 153 153 0 153 
153 0 153 153 0 153 153 0 153 
153 0 153 153 0 153 153 0 153 
153 0 153 153 0 153 153 0 153 
153 0 153 153 0 153 153 0 153 
153 0 153 153 0 153 153 0 153 
153 0 153 153 0 153 153 0 153 
153 0 153 153 0 153 153 0 153 
153 0 153 153 0 153 153 0 153 
153 0 153 153 0 153 153 0 153 
153 0 153 153 0 153 153 0 153 
153 0 153 153 0 153 153 0 153 
153 0 153 153 0 153 153 0 153 
153 0 153 153 0 153 153 0 153 
153 0 153 153 0 153 153 0 153 
153 0 153 153 0 153 153 0 153 
153 0 153 153 0 153 153 0 153 
153 0 153 153 0 153 153 0 153 
153 0 153 153 0 153 153 0 153 
153 0 153 153 0 153 153 0 153 
153 0 153 153 0 153 153 0 153 
153 0 153 153 0 153 153 0 153 
153 0 153 153 0 153 153 0 153 
153 0 153 153 0 153 153 0 153 
153 0 153 153 0 153 153 0 153 
153 0 153 153 0 153 153 0 153 
153 0 153 153 0 153 153 0 153 
153 0 153 153 0 153 153 0 153 
153 0 153 153 0 153 153 0 153 
153 0 153 153 0 153 153 0 153 
153 0 153 153 0 153 153 0 153 
153 0 153 153 0 153 153 0 153 
153 0 153 153 0 153 153 0 153 
153 0 153 153 0 153 153 0 153 
153 0 153 153 0 153 153 0 153 
153 0 153 153 0 153 153 0 153 
153 0 153 153 0 153 153 0 153 
153 0 153 153 0 153 153 0 153 
153 0 153 153 0 153 153 0 153 
153 0 153 153 0 153 153 0 153 
153 0 153 153 0 153 153 0 153 
153 0 153 153 0 153 153 0 153 
153 0 153 153 0 153 153 0 153 
153 0 153 153 0 153 153 0 153 
153 0 153 153 0 153 153 0 153 
153 0 153 153 0 153 153 0 153 
153 0 153 153 0 153 153 0 153 
153 0 153 153 0 153 153 0 153 
153 0 153 153 0 153 153 0 153 
153 0 153 153 0 153 153 0 153 
153 0 153 153 0 153 153 0 153 

