# vtk DataFile Version 1.0
Unstructured Grid Example
ASCII

DATASET UNSTRUCTURED_GRID
POINTS 10230 float
76 44 0
73 46 0
75.25 44.5 0
74.5 45 0
73.75 45.5 0
28 335 0
24 336 0
27 335.25 0
26 335.5 0
25 335.75 0
129 45 0
126 45 0
128.25 45 0
127.5 45 0
126.75 45 0
47 77 0
45 79 0
46.5 77.5 0
46 78 0
45.5 78.5 0
233 98 0
233 95 0
233 97.25 0
233 96.5 0
233 95.75 0
265 236 0
268 235 0
265.75 235.75 0
266.5 235.5 0
267.25 235.25 0
272 235 0
269 235 0
270 235 0
271 235 0
298 133 0
298 129 0
298 132 0
298 131 0
298 130 0
262 63 0
261 65 0
261.75 63.5 0
261.5 64 0
261.25 64.5 0
265 64 0
264.25 63.75 0
263.5 63.5 0
262.75 63.25 0
124 47 0
125.5 45.5 0
125 46 0
124.5 46.5 0
124 21 0
117 20 0
122.25 20.75 0
120.5 20.5 0
118.75 20.25 0
263 69 0
260 70 0
262.25 69.25 0
261.5 69.5 0
260.75 69.75 0
296 119 0
297.5 126.5 0
297 124 0
296.5 121.5 0
297 127 0
297.25 127.5 0
297.5 128 0
297.75 128.5 0
296.25 121 0
296.5 123 0
296.75 125 0
301 384 0
297 382 0
300 383.5 0
299 383 0
298 382.5 0
305 384 0
304 384 0
303 384 0
302 384 0
95 175 0
97 179 0
95.5 176 0
96 177 0
96.5 178 0
79 42 0
76.75 43.5 0
77.5 43 0
78.25 42.5 0
77 39 0
76.75 40.25 0
76.5 41.5 0
76.25 42.75 0
285 225 0
283 226 0
284.5 225.25 0
284 225.5 0
283.5 225.75 0
158 186 0
158 192 0
158 187.5 0
158 189 0
158 190.5 0
149 78 0
146 80 0
148.25 78.5 0
147.5 79 0
146.75 79.5 0
216 63 0
220 63 0
217 63 0
218 63 0
219 63 0
229 84 0
226 90 0
228.25 85.5 0
227.5 87 0
226.75 88.5 0
225 83 0
226 83.25 0
227 83.5 0
228 83.75 0
270 72 0
267 69 0
269.25 71.25 0
268.5 70.5 0
267.75 69.75 0
18 190 0
23 192 0
19.25 190.5 0
20.5 191 0
21.75 191.5 0
219 48 0
216 50 0
218.25 48.5 0
217.5 49 0
216.75 49.5 0
236 109 0
238 120 0
236.5 111.75 0
237 114.5 0
237.5 117.25 0
82 171 0
89 169 0
83.75 170.5 0
85.5 170 0
87.25 169.5 0
257 157 0
263 159 0
258.5 157.5 0
260 158 0
261.5 158.5 0
246 308 0
249 307 0
246.75 307.75 0
247.5 307.5 0
248.25 307.25 0
161 180 0
160.25 181.5 0
159.5 183 0
158.75 184.5 0
94 264 0
92 267 0
93.5 264.75 0
93 265.5 0
92.5 266.25 0
165 344 0
167 342 0
165.5 343.5 0
166 343 0
166.5 342.5 0
35 119 0
38 121 0
35.75 119.5 0
36.5 120 0
37.25 120.5 0
146 89 0
146 85 0
146 88 0
146 87 0
146 86 0
153 347 0
155 346 0
153.5 346.75 0
154 346.5 0
154.5 346.25 0
216 386 0
206 387 0
213.5 386.25 0
211 386.5 0
208.5 386.75 0
285 330 0
281 329 0
284 329.75 0
283 329.5 0
282 329.25 0
272 231 0
270 233 0
271.5 231.5 0
271 232 0
270.5 232.5 0
146 350 0
149 349 0
146.75 349.75 0
147.5 349.5 0
148.25 349.25 0
250 309 0
249 308.75 0
248 308.5 0
247 308.25 0
249 311 0
249.75 309.5 0
249.5 310 0
249.25 310.5 0
214 278 0
214 275 0
214 277.25 0
214 276.5 0
214 275.75 0
217 47 0
212 49 0
215.75 47.5 0
214.5 48 0
213.25 48.5 0
227 45 0
222 47 0
225.75 45.5 0
224.5 46 0
223.25 46.5 0
166 61 0
163 62 0
165.25 61.25 0
164.5 61.5 0
163.75 61.75 0
223 44 0
221.5 44.75 0
220 45.5 0
218.5 46.25 0
235 181 0
237 180 0
235.5 180.75 0
236 180.5 0
236.5 180.25 0
281 122 0
281 126 0
281 123 0
281 124 0
281 125 0
257 235 0
259 235.25 0
261 235.5 0
263 235.75 0
279 128 0
279 125 0
279 127.25 0
279 126.5 0
279 125.75 0
243 132 0
242 129 0
242.75 131.25 0
242.5 130.5 0
242.25 129.75 0
49 75 0
48.5 75.5 0
48 76 0
47.5 76.5 0
18 187 0
18 187.75 0
18 188.5 0
18 189.25 0
122 221 0
122 224 0
122 221.75 0
122 222.5 0
122 223.25 0
53 334 0
50 335 0
52.25 334.25 0
51.5 334.5 0
50.75 334.75 0
48 334 0
49.5 334.75 0
49 334.5 0
48.5 334.25 0
230 47 0
228 48 0
229.5 47.25 0
229 47.5 0
228.5 47.75 0
249 60 0
249 57 0
249 59.25 0
249 58.5 0
249 57.75 0
252 59 0
251.25 59.25 0
250.5 59.5 0
249.75 59.75 0
229 44 0
227.5 44 0
226 44 0
224.5 44 0
279 79 0
274 78 0
277.75 78.75 0
276.5 78.5 0
275.25 78.25 0
63 52 0
62 55 0
62.75 52.75 0
62.5 53.5 0
62.25 54.25 0
232 92 0
227.5 90.5 0
229 91 0
230.5 91.5 0
230 88 0
231.5 91 0
231 90 0
230.5 89 0
175 168 0
173 166 0
174.5 167.5 0
174 167 0
173.5 166.5 0
150 80 0
149.25 78.5 0
149.5 79 0
149.75 79.5 0
151 75 0
150.5 75.75 0
150 76.5 0
149.5 77.25 0
219 68 0
217 65 0
218.5 67.25 0
218 66.5 0
217.5 65.75 0
168 345 0
167.75 344.25 0
167.5 343.5 0
167.25 342.75 0
171 340 0
168 341.5 0
169 341 0
170 340.5 0
170.25 341.25 0
169.5 342.5 0
168.75 343.75 0
132 87 0
131 89 0
131.75 87.5 0
131.5 88 0
131.25 88.5 0
155 57 0
153 53 0
154.5 56 0
154 55 0
153.5 54 0
64 57 0
62 59 0
63.5 57.5 0
63 58 0
62.5 58.5 0
46 73 0
49 71 0
46.75 72.5 0
47.5 72 0
48.25 71.5 0
61 61 0
58 63 0
60.25 61.5 0
59.5 62 0
58.75 62.5 0
139 132 0
131 134 0
137 132.5 0
135 133 0
133 133.5 0
36 115 0
37 117 0
36.25 115.5 0
36.5 116 0
36.75 116.5 0
42 80 0
44 76 0
42.5 79 0
43 78 0
43.5 77 0
57 61 0
53 65 0
56 62 0
55 63 0
54 64 0
44 71 0
50.75 66.5 0
48.5 68 0
46.25 69.5 0
97 261 0
96.25 261.75 0
95.5 262.5 0
94.75 263.25 0
164 213 0
165 210 0
164.25 212.25 0
164.5 211.5 0
164.75 210.75 0
119 222 0
121.25 223.5 0
120.5 223 0
119.75 222.5 0
124 215 0
121 217 0
123.25 215.5 0
122.5 216 0
121.75 216.5 0
124 218 0
124 215.75 0
124 216.5 0
124 217.25 0
161 201 0
163 204 0
161.5 201.75 0
162 202.5 0
162.5 203.25 0
158 198 0
162 199 0
159 198.25 0
160 198.5 0
161 198.75 0
161.75 199.5 0
161.5 200 0
161.25 200.5 0
157 202 0
160 201.25 0
159 201.5 0
158 201.75 0
118 216 0
119 219 0
118.25 216.75 0
118.5 217.5 0
118.75 218.25 0
176 214 0
177 212 0
176.25 213.5 0
176.5 213 0
176.75 212.5 0
174 210 0
174.5 211 0
175 212 0
175.5 213 0
157 195 0
157.75 192.75 0
157.5 193.5 0
157.25 194.25 0
160 196 0
158.5 193 0
159 194 0
159.5 195 0
174 338 0
171.75 339.5 0
172.5 339 0
173.25 338.5 0
169 210 0
166 210 0
167 210 0
168 210 0
238 306 0
243 309 0
239.25 306.75 0
240.5 307.5 0
241.75 308.25 0
196 217 0
195 215 0
195.75 216.5 0
195.5 216 0
195.25 215.5 0
281 384 0
306 387 0
287.25 384.75 0
293.5 385.5 0
299.75 386.25 0
298 384 0
293.75 384 0
289.5 384 0
285.25 384 0
300 384.75 0
302 385.5 0
304 386.25 0
288 383 0
282.75 383.75 0
284.5 383.5 0
286.25 383.25 0
290.5 383.25 0
293 383.5 0
295.5 383.75 0
267 330 0
273 330 0
268.5 330 0
270 330 0
271.5 330 0
46 336 0
47.5 334.5 0
47 335 0
46.5 335.5 0
41 336 0
46.25 334.5 0
44.5 335 0
42.75 335.5 0
56 306 0
58 312 0
56.5 307.5 0
57 309 0
57.5 310.5 0
57 335 0
56 334.75 0
55 334.5 0
54 334.25 0
46 230 0
47 232 0
46.25 230.5 0
46.5 231 0
46.75 231.5 0
46 234 0
46.75 232.5 0
46.5 233 0
46.25 233.5 0
57 227 0
54 230 0
56.25 227.75 0
55.5 228.5 0
54.75 229.25 0
44 235 0
45.5 234.25 0
45 234.5 0
44.5 234.75 0
83 270 0
89 269 0
84.5 269.75 0
86 269.5 0
87.5 269.25 0
39 266 0
40 274 0
39.25 268 0
39.5 270 0
39.75 272 0
38 264 0
38.25 264.5 0
38.5 265 0
38.75 265.5 0
282 330 0
279 330 0
276 330 0
306 380 0
305.75 381 0
305.5 382 0
305.25 383 0
303 382 0
303.5 382.5 0
304 383 0
304.5 383.5 0
33 336 0
39 336 0
37 336 0
35 336 0
91 270 0
88 274 0
90.25 271 0
89.5 272 0
88.75 273 0
52 302 0
54 307 0
52.5 303.25 0
53 304.5 0
53.5 305.75 0
60 319 0
58 316 0
59.5 318.25 0
59 317.5 0
58.5 316.75 0
60 326 0
60 324.25 0
60 322.5 0
60 320.75 0
259 381 0
261 382 0
259.5 381.25 0
260 381.5 0
260.5 381.75 0
269 323 0
268.5 324.75 0
268 326.5 0
267.5 328.25 0
256 386 0
258 385 0
256.5 385.75 0
257 385.5 0
257.5 385.25 0
260 386 0
258.5 385.25 0
259 385.5 0
259.5 385.75 0
250 385 0
251.5 385.25 0
253 385.5 0
254.5 385.75 0
227 332 0
221 331 0
225.5 331.75 0
224 331.5 0
222.5 331.25 0
225 330 0
224 330.25 0
223 330.5 0
222 330.75 0
186 312 0
184 316 0
185.5 313 0
185 314 0
184.5 315 0
180 334 0
182 333 0
180.5 333.75 0
181 333.5 0
181.5 333.25 0
178 336 0
178.5 335.5 0
179 335 0
179.5 334.5 0
90 35 0
86 37 0
89 35.5 0
88 36 0
87 36.5 0
82 39 0
80 40 0
81.5 39.25 0
81 39.5 0
80.5 39.75 0
85 37.5 0
84 38 0
83 38.5 0
93 165 0
94 170 0
93.25 166.25 0
93.5 167.5 0
93.75 168.75 0
254 231 0
253 233 0
253.75 231.5 0
253.5 232 0
253.25 232.5 0
213 182 0
216 181 0
213.75 181.75 0
214.5 181.5 0
215.25 181.25 0
217 184 0
216.25 181.75 0
216.5 182.5 0
216.75 183.25 0
262 229 0
261 232 0
261.75 229.75 0
261.5 230.5 0
261.25 231.25 0
211 189 0
213 191 0
211.5 189.5 0
212 190 0
212.5 190.5 0
158 178 0
157 181 0
157.75 178.75 0
157.5 179.5 0
157.25 180.25 0
158.75 178.5 0
159.5 179 0
160.25 179.5 0
139 210 0
137 208 0
138.5 209.5 0
138 209 0
137.5 208.5 0
223 70 0
225 73 0
223.5 70.75 0
224 71.5 0
224.5 72.25 0
259 63 0
259.5 63.5 0
260 64 0
260.5 64.5 0
243 53 0
241 52 0
242.5 52.75 0
242 52.5 0
241.5 52.25 0
261.25 63 0
260.5 63 0
259.75 63 0
258 61 0
255 59 0
257.25 60.5 0
256.5 60 0
255.75 59.5 0
152 58 0
151 60 0
151.75 58.5 0
151.5 59 0
151.25 59.5 0
151 49 0
149 47 0
150.5 48.5 0
150 48 0
149.5 47.5 0
153 70 0
149 69 0
152 69.75 0
151 69.5 0
150 69.25 0
147 53 0
146 56 0
146.75 53.75 0
146.5 54.5 0
146.25 55.25 0
149 56 0
148.25 56 0
147.5 56 0
146.75 56 0
288 224 0
284 223 0
287 223.75 0
286 223.5 0
285 223.25 0
282 233 0
286 231 0
283 232.5 0
284 232 0
285 231.5 0
268 316 0
267 314 0
267.75 315.5 0
267.5 315 0
267.25 314.5 0
282 230 0
285 229 0
282.75 229.75 0
283.5 229.5 0
284.25 229.25 0
266 230 0
268 232 0
266.5 230.5 0
267 231 0
267.5 231.5 0
270 229 0
267 229.75 0
268 229.5 0
269 229.25 0
290 328 0
291 330 0
290.25 328.5 0
290.5 329 0
290.75 329.5 0
298 329 0
296 328.75 0
294 328.5 0
292 328.25 0
190 79 0
189 75 0
189.75 78 0
189.5 77 0
189.25 76 0
189 84 0
189.25 82.75 0
189.5 81.5 0
189.75 80.25 0
149 44 0
151 46 0
149.5 44.5 0
150 45 0
150.5 45.5 0
149 66 0
148 62 0
148.75 65 0
148.5 64 0
148.25 63 0
147 75 0
146.25 78.75 0
146.5 77.5 0
146.75 76.25 0
171 126 0
172 124 0
171.25 125.5 0
171.5 125 0
171.75 124.5 0
140 148 0
137 148 0
139.25 148 0
138.5 148 0
137.75 148 0
97 33 0
95 34 0
96.5 33.25 0
96 33.5 0
95.5 33.75 0
99 78 0
101 81 0
99.5 78.75 0
100 79.5 0
100.5 80.25 0
103 76 0
102 76.5 0
101 77 0
100 77.5 0
101.5 79.75 0
102 78.5 0
102.5 77.25 0
70 282 0
72 280 0
70.5 281.5 0
71 281 0
71.5 280.5 0
162 345 0
162.75 344.75 0
163.5 344.5 0
164.25 344.25 0
46 238 0
47 236 0
46.25 237.5 0
46.5 237 0
46.75 236.5 0
44.5 235.75 0
45 236.5 0
45.5 237.25 0
80 262 0
80 257 0
80 260.75 0
80 259.5 0
80 258.25 0
43 277 0
41 280 0
42.5 277.75 0
42 278.5 0
41.5 279.25 0
79 254 0
76 252 0
78.25 253.5 0
77.5 253 0
[...]
POINT_DATA 10230
SCALARS scalars float 1
LOOKUP_TABLE default
0 0 0 0 0 0 0 0 0 0 0 0 0 0 0 0 0 0 0 0 0 0 0 0 0 0 0 0 0 0 0 0 0 0 0 0 0 0 0 0 0 0 0 0 0 0 0 0 0 0 0 0 0 0 0 0 0 0 0 0 0 0 0 0 0 0 0 0 0 0 0 0 0 0 0 0.5 1 0.5 0 0 0 0 0 0 0 0 0 0 0 0 0 0 0 0 0 0 0 0 0 0 0 0 0 0 0 0 0 0 0 0 0 0 0 0 0 0 0 0 0 0 0 0 0 0 0 0 0 0 0 0 0 0 0 0 0 0 0 0 0 0 0 0 0 0 0 0 0 0 0 0 0 0 0 0 0 0 0 0 0 0 0 0 0 0 0 0 0 0 0 0 0 0 0 0 0 0 0 0 0 0 0 0 0 0 0 0 0 0 0 0 0 0 0 0 0 0 0 0 0 0 0 0 0 0 0 0 0 0 0 0 0 0 0 0 0 0 0 0 0 0 0 0 0 0 0 0 0 0 0 0 0 0 0 0 0 0 0 0 0 0 0 0 0 0 0 0 0 0 0 0 0 0 0 0 0 0 0.53033 1.06066 0.67082 0 0 0 0 0 0 0 0 0 0 0 0 0 0 0 0 0 0 0 0 0 0 0 0 0 0 0 0 0 0 0 0 0 0 0 0 0 0 0 0 0 0 0 0 0 0 0 0 0 0 0 0 0 0 0 0 0 0 0 0 0 0 0 0 0 0 0 0 0 0 0 0 0 0 0 0 0 0 0 0 0 0 0 0 0 0 0 0 0 0 0 0 0 0 0 0 0 0 0 0 0 0 0 0 0 0 0 0 0 0 0 0 0 0 0 0 0 0 0 0 0 0 0 0 0 0 0 0 0 0 0 0 0 0 0 0 0 0 0 0 0 0 0 0 0 0 0 0 0 0 0 0 0 0 0 0 0 0 0 0 0 0 0 0 0 0 0 0 0 0 0 0 0 0 0 0 0 0 0 0 0 0 0.624038 1.24808 0.790569 0 0 0 0 0 0 0 0 0 0 0 0 0 0 0 0 0 0 0 0 0 0 0 0 0 0 0 0 0 0 0 0 0 0 0 0 0 0 0 0 0 0 0 0 0 0 0 0 0 0 0 0 0 0 0 0 0 0 0 0 0 0 0 0 0 0 0 0 0 0 0 0 0 0 0 0 0 0 0 0 0 1 0.25 0.5 0.75 0 0 0 0 0 0 1.18585 0.790569 0.395285 0 0 0 0 0 0 0 0 0 0 0 0 0 0 0 0 0 0 0 0 0 0 0 0 0 0 0 0 0 0 0 0 0 0 0 0 0 0 0 0 0 0 0 0 0 0 0 0 2.12132 0 1.59099 1.06066 0.53033 0 0 0 0 0 0 0 0 0 0 0 0 0 0 0 0 0 0 0 0 0 0 0 0 0 0 0 0 0 0 0 0 0 0 0 0 0 0 0 0 0 0 0 0 0 0 0 0 0 0 0 0 0 0 0 0 0 0 0 0 0 0 0 0 0 0.559017 1.11803 0.559017 0 0 0 0 0 0 0 0 0 0 0 0 0 0 0 0 0 0 0 0 0 0 0 0 0 0 0 0 0 0 0 0 0 0 0 0 0 0 0 0 0 0 0 0 0 0 0 0 0 0 0 0 0 0 0 0 0 0 0 0 0 0.782624 1.56525 1.03078 0 0 0.624038 1.24808 0.762713 0 0.624038 1.24808 0.75 0 0 0 0 0 0 0 0 0 0 0 0 0 0 0 0 0 0 0 0 0 2.12132 0.606339 1.21268 1.81902 0 0 0 0 0 0 0 0 0 0 0 0 0 0 0 0 0 0 0 0 0 0 0 0 0 0 0 0 0 0 0 0 0 0 0 0 1.78885 0 1.34164 0.894427 0.447214 0 0 0 0 0 0 0 0 0 0 0 0 0 0 0 0 0 0 0 0 0 0 0 0 0 0 0 0 0 0 0 0 0 0 0 0 0.5 1 0.782624 0 0 0 0 0 0 0 0 0 0 0 0 0 0 0 0 0 0 0 0 0 0 0 0 0 0 0 0 0 0 0 0 0 0 0 0 0 0 0 0 0 0 0 0 0 0 0 0 0 0 0 0 0 0 0 0 0 0 0 0 0 0 0 0 0 0 0 0 0 0 0 0 0 0 0 0 0 0 0 0 0 0 0 0 0 0 0 0 0 0 0 0 0 0 0 0 0 0 0 0 0 0 0 0 0 0 0 0 0 0 0 0 0 0 0 0 0 0.5 1 0.5 0 0 0 0 0 0 0 0 0 0 0 0 0 0 0 0 0 0 0 0 0 0 0 0 0 0 0 0 0 0 0 0 0 0 0 0 0 0 0 0 0 0 0 0 0 0 0 0 0 0 0 0 0 0 0 0 0 0 0 0 0 0 0 0 0 0 0 0 0 0 0 0 0 0 0 0 0 0 0 0 0 0 0 0 0 0 0 0 0 0 0 0 0 0 0 0 0 0 0 0 0 0 0 0 0 0 0 0 0 0 0 0 0 0 0 0 0 0 0 0 0 0 0 0 0 0.53033 1 0.5 0 0 0 0 0 0 0 0 0 0 0 0 0 0 0 0 0 0 0 0 0 0 0 0 0 0 0 0 0 0 0 0 0 0 0 0 0 0 0 0 0 0 0 0 0 0 0 0 0 0 0 0 0 0 0 0 0 0 0 0 0 0 0 0 0 0 0 0 0 0 0 0 0 0 0 0 0 0 0 0 0 0 0 0 0 0 0 0 0 0 0 0 0 0 0 0 0 0 0 0 0 0 0 0 0 0 0 0 0 0 0 0 0 0 0 0 0 0 0 0 0 0 0 0 0 0 0 0 0 0 0 0 0 0 0 0 0 0 0 0 0 0 0 0 0 0 0 0 0 0 0 0 0 0 0 0 0 0 0 0 0 0 0 0 0 0 0 0 0 0 0 0 0 0 0 0 0 0 0 0 0 0 0 0 0 0 0 0 0 0 0 0 0 0 0 0 0 0 0 0 0 0 0 0 0 0 0 0 0 0 0 0 0 0 0 0 0 0 0 0 0 0 0 0 0 0 0 0 0 0 0 0 0 0 0 0 0 0 0 0 0 0 0 0 0 0 0 0 0 0 0 0 0 0 0 0 0 0 0 0 0 0 0 0 0 0 0 0 0 0 0 0 0 0 0 0 0 0 0 0 0 0 0 0 0 0 0 0 0 0 0 0 0 0 0 0 0 0 0 0 0 0 0 0 0 0 0 0 0 0 0 0 0 0 0 0 0 0 0 0 0 0 0 0 0 0 0 0 0 0 0 0 0 0 0 0 0 0 0 0.5 1 0.5 0 0 0 0 0 0 0 0 0 0 0 0 0 0 0 0 0.424437 0.848875 0.553399 0 0 0 0 0 0 0 0 0 0 0 0.539319 1.07864 0.55 0 0 0 0 0 0 0 0 0 0 0 0 0 0 0 0 0 0 0 0 0 0 0 0 0 0 0 0 0 0 0 0 0 0 0 0 0 0 0 0 0 0 0 0 0 0 0 0 0 0 0 0 0 0 0 0 0 0 0 0 0 0 0 0 0.53033 1 0.5 0 0 0 0 0 0 0 0 0 0 0 0 0 0 0 0 0 0 0 0 0 0 0 0 0 0 0 0 0 0 0 0 0 0 0 0 0 0 0 0 0 0 0 0 0 0 0 0 0 0 0 0 0 0.262613 0.525226 0.787839 0 0 0 0 0 0 0 0 0 0 0 0 0 0 0 0 0 0 0 0 0 0 0 0 0 0 0 0 0 0 0 0 0 0 0.707107 1.11803 0.559017 0 0 0 0 0 0 0 0.869626 1.73925 0.909509 0 0 0 0 0 0 0 0 0 0 0 0 0 0 0 0 0 0 0 0 0 0 0 0 0.53033 1.06066 0.67082 0 0 0 0 0 0 0 0 0 0 0 0 0 0 0 0 0 0 0 0 0 0 0 0 0 0 0 0 0 0 0 0 0 0 0 0 0 0 0 0 0 0 0 0 0 0 0 0 0 0 0.883883 1.76777 2.2981 0 0 0 0 1.31519 0.328798 0.657596 0.986394 1.31519 1.31519 0.894427 0 0 0 0 0 0 0 0 0 0 0 0 0 0 0 0 0.545705 0.790569 0.395285 0 0 0 0 0 0 0 0 0 0 0 0 0 0 0 0 0 0 0 0 0 0 0 0 0 0 0.588348 0.147087 0.294174 0.441261 0.474342 0.948683 0.474342 0 1.22573 1.1068 0.553399 0 0 0 0 0 0 0 0 0 0 0 0 0 0 0 0 0 0 2.42536 1.81902 1.21268 0.606339 0 0 0 0 0 0 0 0 0 0 0 0 0 0 0 0 0 0 0 0 0 0 0 0 0 0 0 0 0 0 0 0 0 0 0 0 0 0 0 0 0 0 0 0 0 0 0 0 0 0 0 0 0 0 0 0 0 0 0 0 0 0 0 0 0 0 0 0 0 0 0 0 0 0 0 0 0 0 0 0 0 0 0 0 0 0 0 0 0 0 0 0 0 0 0 0 0 0 0 0 0 0 0 0 0 0 0 0 0 0 0 0 0 0 0 0 0 0 0 0 0 0 0 0 0 0 0 0 0 0 0 0 0 0 0 0 0 0 0 0 0 0 0 0 0 0 0 0 0 0 0 0 0 0 0 0 0 0 0 0.707107 1.26491 0.632456 0 0 0 0 0 0 0 0 0 0 0 0 0 0 0 0 0 0 0 0 0 0 0 0 0 0 0 0 0 0 0 0 0 0 0 0 0 0 0 0 0 0 0 0 0 0 0 0 0 0 0 0 0 0 0 0 0 0 0 0 0 0 0 0 0 0 0 0 0 0 0 0 0 0 0 0 0 0 0 0 0 0 0 0 0 0 0 0 0 0 0 0 0 0 0 0 0 0.553399 1.1068 0.637377 0 0 0 0 0 0 0 0 0 0 0 0 0 0 0 0 0 0 0 0 0 0 0 0 0 0 0 0 0 0 0 0 0 0 0 0 0 0 0 0 0 0 0 0 0 0 0 2.21359 0 1.6641 1.1094 0.5547 0 0 0 0 0 0 0 0 0 0 0 0 0 0 0 0.553399 1.1068 1.6602 0 0.75 1.06066 0.53033 0 0 0 0 0 0 0 0 0 0 0 0 0 0 0 0 0 0 0 0 0 0 0 0 0 0 0 0 0 0 0 0 0 0 0 0 0 0 0 0 0 0 0 0 0 0 0 0 0 0 0 2.68328 0.67082 1.34164 2.01246 0 0 0 0 0 0 0 0 0 0 0 0 0 0 0 0 0 0 0 0 0 0 0 0 0 0 0 0 0 0 0 0 0 0 0 0 0 0 0 0 0 0 0 0 0 0 0 0 0 0 0 0 0 0 0 0 0 0.33541 0.67082 0.559017 0 0 0 0 0 0 0 0 0 0 2.78543 1.03078 2.06155 2.64616 0 0 0 0 0 0 0 0 0 0 0 0 0 0 0 0 0 0 0 0 0 0 0 0 0 0 0 0 0 0 0 0 0 0 0 0 0 0 0 0 0 0 0 0 0 0 0 0 0 0 0 0 0 0 0 0 0 0 0 0 0 0 0 0 0 0 0 0 0 0 0 0 0 0 0 0 0 0 0 0 0 0 0 0 0 0 0 0 0 0 0 0 0 0 0 0 0 0 0 0 0 0 0 0 0 0 0 0 0 0 0 0 0 0 0 0 0 0 0 0 0 0 0 0 0 0 0 0 0 0 0 0 0 0.5 1 0.67082 0 0 0 0 0 0 0 0 0 0 0 0 0 0 0 0 0 0 0 0 0 0 0 0 0 0 0 0 0 0 0 0 0 0 0 0 0 0 0 0 0 0 0 0 0 0 0.53033 0.970725 0.485363 0 0 0 0 0 0 0 0 0 0 0 0 0 0 0 0 0 0 0 0 0 0 0 0 0 0 0 0 0 0 0 0 0 0 0 0 0 0 0 0 0 0 0 0 0 0 0 0 0 0 0 0 0 0 0 0 0 0 0 0 0 0 0 0 0 0 0 0 0 0 0 0 0 0 0 0 0 0 0 0 0 0 0 0 0 0 0 0 0 0 0 0 0 0 0 0 0 0 0 0 0 0 0 0 0 0 0 0 0 0 0 0 0 0 0 0 0.693375 1.34164 0.67082 0 0 0 0 0 0 0 0 0 0 0 0 0 0 0 0 0 0 0 0 0 0 0 0 0 0 0 0 0 0 0 0 0 0 0 0 0 0 0 0 0 0 0 0 0 0 0 0 0 0 0 0 0 0 0 0 0 0 0 0 0 0.0355825 0.050173 0.0334486 0.0167243 0 0 0 0 0 0 0 0 0 0 0 0 0 2.68328 0.67082 1.34164 2.01246 0 0.666973 1.33395 2.00092 0 0 0 0 0 0 0 0 0 0 0 0 0 0 0 0 0 0 0 0 0 0 0 0 0 0 0 0 0 0 0 0 0 0 0 0 0 0 0 0 0 0 0 0 0 0 0 0 0 0 0 0 0 0 0 0 0 0 0 0 0 0 0 0 0 0 0 0 0 0 0 0 0 0 0 0 0 0 0 0 0 0 0 0 0 0 0 0 0 0 0 0 0 0 0 0 0 0 0 0 0 0 0 0 0 0 0 0 0 0 0 0 0 0 0 0 0 0 0 0 0 0 0 0 0 0 0 0 0 0 0 0 0 0 0 0 0 0 0 0 0 0 0 0 0 0 0 0 0 0 0 0 0 0 0 0 0 0 0 0 0 0 0 0 0 0 0 0 0 0 0 0 0 0 0 0 0 0 0 0 0 0 0 0 0.588348 0.441261 0.294174 0.147087 0 0 0 0 0 0 0 0 0 0 0 0 0 0 0 0 0 0 0 0 0 0 0 0 0 0 0 0 0 0 0 0.485363 0.564467 0.282233 0 0 0 0 0 0 0 0 0 0 0 0 0 0 0.53033 1.06066 0.67082 0 0 0 0 0 0 0 0 0 0 0 0 0 0 0 0 0 0 0 0 0 0 0 0 0 0 0 0.632456 1.26491 0.632456 0 0 0 0 0 0 0 0 0 0 0 0 2.18282 0 1.63712 1.09141 0.545705 0 0 0 0 0 0 0 0 0 0 0 0 0 0 0 0 0 0 0 0 0 0 0 0 0 0 0 0 0 0 0 0 0 0 0 0 0 0 0 0 0 0 0 0 0 0 0 0 0 0 0 0 0 0 0 0 0 0 0 0 0 0 0.632456 1.11803 0.559017 0 0 0 0 0 0 0 0.632456 1.26491 0.632456 0 0 0 0 0 0 0 0 0 0 0 0 0 0 0 0 0 0 0 0 0 0 0 0 0 0 0 0 0 0 0 0 0 0 0 0 0 0 0 0 0 0 0 0 0 0 0 0 0 0 0 0 0 0 0 0 0 0 0 0 0 0.553399 1.1068 0.782624 0 0 0 0 0 0 0 0 0 0 0 0 0 0 0 0 0 0 0 0 0 0 0 0 0 0 0 0 0 0 0 0 0 0 0 0 0 0 0 0 0 0 0 0 0 0 0 0 0 0 0 0 0 0 0 0 0 0 0 0 0 0 0 0 0 0 0 0 0 0 0 0 0 0 0 0 0 0 0 0 0 0 0 0 0 0 0 0 0 0 0 0 0 0 0 0 0 0 0 0 0 0 0 0 0 0 0 0 0 0 0 0 0 0 0 0 0 0 0 0 0 0 0 0 0 0 0 0 0 0 1.00623 1.06066 0.53033 0 0 0 0 0 0 0 0 0 0 0 0 0 0 0 0 0 0 0 0 0 0 0 0 0 0 0 0 0 0 0 0 0 0 0 0 0 0 0 0 0 0 0 0 0 0 0 2.2 2.12132 2.2 2.2 2.2 0 0 0 0 0 0 0 0 0 0 0 0 0 0 0 0 0 1.25 2.32119 1.1606 0 0 0 0 0 0 0 0 0 0 0 0 0 0 0 0 0 0 0 0 0 0 0 0 0 0 0 0.545705 1 0.5 0 0 0 0 0 0 0 0 0 0 0 0 0 0 0 0 0 0 0 0 0 0 0 0 0 0 0 0 0 0 0.53033 1.06066 0.53033 0 0 0 0 2.82843 0.707107 1.41421 2.12132 0 0 0 0 0 0 0 0 0 0 0 0 0 0 0 0 0 0 0 0 0 0 0 0 0 0 0 0.53033 1 0.5 0 0 0 0 0 0 0 0 0 0 0 0 0 0 0 0 0 0 0 0 0 0 0 0 0 0 0 0 0 0 0 0 0 0 0 0 0 0 0 0 0 0 0 0 0 0 0 0 0 0 0 0 0 0 0.5 1 0.632456 0 0 0 0 0 0 0 0 0 0 0 0 0 0 0 0 0 0 0 0 0 0 0 0 0 0 0 0 0 0 0 0 0 0 0 0 0 0 0 0 0 0 0 0 0 0 0 0 0 0 0 0 0 0 0 0 0 0 2 0 1.5 1 0.5 0 0 0 0 0 0 0 0 0 0 0 0 0 0 0 0 0 0 0.649934 1.29987 0.7 0 0 0 0 0 0 0 0 0 0 0 2.8 0.894427 1.78885 2.68328 0 0 0 0 0 0 0 0 0 0 0 0 0 0 0 0 0 0 0 0 0 0 0 0 0 0 0.632456 1.26491 0.686406 0 0 0 0 0 0 0 0 0 0 0 0 0 0 0 0 0 0 0 0 0 0 0 0 0 0 0 0 0 0.707107 0.784465 0.392232 0 0 0 0 0 0 0 0 0 0 0 0 0 0 0 0 0 0 0 0 0 0 0 0 0 0 0 0 0 0 0 0 0 0 0 0 0 0 0 0 0 0 0 0 0 0 0 0 0 0 0 0 0 0 0 0 0 0 0 0 0 0 0 0 0 0 0 0.75 1.24808 0.624038 0 0 0 0 0 0 0 0 0 0 0 0 0 0 0 0 0 0 0 0 0 0 0 0 0 0 0 0 0 0 0 0 0 0 0 0 0 0 0 0 0 0 0 0 0 0 0 0 0 0 1.94145 0.447214 0.894427 1.38675 4.24264 3.32039 2.21359 1.1068 0 0 0 0 0 0 0 0 0 0 0 0 0 0 0 0 0 0 0 0 0 0 0 0 0 0 0 0 0 0 0 0 0 0 0 0 0 0 0 0 0 0 0 0 0 0 0 0 0 0 0 0 0 0 0 0 0 0 0 0 0 0 0 0 0 0 0 0 0 0 0 0 0 0 0 0 0 0 0 0 0 0 0 0 0 0 0 0 0 0 0 0 0 0 0 0 0 0 0 0 0 0 0 0 0 0 0 0 0 0 0 0 0 0 0 0 0 0 0 0 0 2.42536 0 1.81902 1.21268 0.606339 0 0 0 0 0 0 0 0 0 0 0 0 0 0 0 0 0 0 0 0 0 0 0 0 0 0 0 0 0 0 0 0 0 0 0 0 0 0 0 0.762713 1.33395 0.666973 0 0 0 0 0 0 0 0 0 0 0 0 0 0 0 0 0 0 0 0 0 0 0 0 0 0 0 0 0 0 0 0 0 0 0 0 0 0 0 0 0 0 0 0 0 0 0 0 0 0 0 0 0 0 0 0 0 0 0 0 0 0 0 0 0 0 0 0 0 0 0 0 0 0 0 0 0 1 1.89737 0.948683 0 0 0.75 1.45521 0.727607 0 0 0 0 0 0 0 0.25 0.5 0.624038 0 0 0 0 0 0 0 0 0 0 0 0 0 0 0 0 0 0 0 0 0 0 0 0 0 0 0 0 0 0 0 0 0 0.5 0.848875 0.424437 0 0 0 0.782624 1.1068 0.553399 0 0 0 0 0 0 0 0 0 0 0 0.485363 0.542331 0.271165 0 0 0 0 0 0 0 0 0 0 0 0 0 0 0 0 0 0 0 0 0 0 0 0 0 0 0 0 0 0 0 0 0 0 0 0 0 0 0 0 0 0 0 0 0 0 0 0.5 1 0.693375 0 0.545705 1.09141 1.63712 0 0 0 0 0 0 0 0 0 0 0 0 0 0 0 0 0 0.75 1.5 0.83205 0 0 1.03078 1.56525 0.782624 0 0 0 0 0 0 0.762713 1.52543 0.869626 0 0 0 0 0 0 0 0 0 0 0 0 0 0 0 0 0 0 0 0 0 0 0 0 0 0 0 0 0 0 0 0 0 0 0 0 0 0 0 0 0 0 0 0.606339 1.21268 0.883883 0 0 0 0 0 0 0 0 0 0 0 0 0 0 0 0 0 0 0.782624 1.56525 1.45774 0 0 0 0 0 0 0 0 0 0 0 0 0 0 0 0 0 0 0 0 0 0 0.53033 1.06066 0.624038 0 0 0 0 0 0 0 0 0 0 0 0 0 0 0 0 0 0 0 0 0 0 0 0 0 0 0 0 0 0 0 0.869626 1.33395 0.666973 0 0 0 0 0 0 0 0 0 0 0 0 0 0 0 0 0 0 0 0 0 0 0 0 0 0 0 0 0 0.894427 1.1094 0.5547 0 0 0 0 0 0 0 0 0 0 0 0 0 0 0 0.25 0.5 0.559017 0 0 0 0 0 0 0 0 0 0 0 0 0 0 0 0 0 0 0 0 0 0 0 0 0 0 0 0 0 0 0 0 0 0 0 0 0 0 0 0 0 0.424437 0.848875 0.559017 0 0 0 0 0.13422 0.100665 0.06711 0.033555 0 0 0 0 0 0 0 0 0 0 0 0 0 0 0 0 0 0 0 0 0 0 0 0 0 0 0 0 0 0 0 0 0 0 0 0 0 0 0 0 0 0 0 0 0 0 0 0 0 0 0 0 0 0 0 0 0 0 0 0 0 0 0 0 0 0 0 0 0 0 0 0.395285 0.790569 0.5547 0 0 0 0 0 0 0 0 0 0 0 0 0 0 0 0 0 0 0 0 0 0 0 0 0 0 0 0 0 0 0 0 0 0 0 3.3955 0 2.54662 1.69775 0.848875 0 0 0 0 0 0 0 0 0 0 0 0 0 0 0 0 0 0 0 0 0 0 0 0 0 0 0 0 0 0 0 0 0.693375 1.38675 0.883883 0 0 0 0 0 0 0 0 0 0 0 0 0 0 0 0 0 0 0 0 0 0 0 0 0 0 0.00889561 0.0177912 0.0266868 0 0 0 0 0 0 0 0 0 0 0 0 0 0 0 0 0 0 0 0 0 0 0 0 0 0 0 0 0 0 0 0 0 0 0 0 0 0 0 0 0 0 0 0 0 0 0 0 0 0 0 0 0 0 0 0 0 0 0 0 0 0 0 0 0 0 0 0 0 0 0 0 0 0 0 0 0 0 0 0 0 0 0 0 0 0 0 0 0 0 0 0 0.55 1.1 1.65 0 0 0 0 0 0 1.59099 1.06066 0.53033 0 0 0 0 0 0 0 0 0 0 0 0 0 0 0 0 0 0 0 0 0 0 0 0 0 0 0 0 0 0 0 0 0 0 0 0 0 0 0 0 0 0 0 0 0 0 0 0 0 0 0 0 0 0 0 0 0 0 0 0 0 0.53033 1.06066 0.53033 0 0.75 1.06066 0.53033 0 0 0 0 0 0 0 0 0 0 0 0.75 1.24808 0.624038 0 0 0 0 0 0 0 0 0 0 0 0 0 0 0 0 0 0 0 0 0 0 0 0 0 0 0 0 0 0 0 0 0 0 0 0 0 0 0 0 0 0 0 0 0 0 0 0.5 1 1.5 0 0 0 0 0 0 0 0 0 0 0 0.637377 1.27475 0.901388 0 0 0 0 0 0 0 0 0 0 0 0 0 0 0 0 0 0 0 0 0 0 0 0 0 0 0 0 0 0 0 0 0 0 0 0 0 0 0 0 0 0 0 0 0 0 0 0 0 0 0 0 0 0 0 0 0 0 0 0 0 0 0 0 0 0 0 0 0 0 0 0 0.395285 0.790569 0.559017 0 0 0 0 0 0 0 0.75 1.24808 0.624038 0 0 0 0 0 0 0 0 0 0 0 0 0 0 0 0 1.59099 1.06066 0.53033 0 0 0 0 0 0 0 0 0 0 0 0 0 0 0 0 0 0 0 0 0 0 0 0 0 0 0 0 0 0 0 0 0 0 0 0 0 0 0 0 0 0 0 0 0 0 0 0 0 0 0 0 0 0 0 0 0.711512 1.42302 2.13454 0 0 0 0 0 0 0 0 0 0 0 0 0 0 0 0 0 0 0 0 0 0 0 0 0 0 0 0 0 0 0 0 0 0 0 0 0 0 0 0 0 0 0 0 0 0 0 0.67082 1.34164 0.727607 0 0 0 0 0 0 0 0 0 0 0 0 0 0 0 0 0 0 0 0 0 0 0 0 0 0 0 0 0 0 0 0 0 0 0 0 0 0 0 0 0 0 0 0 0 0 0 0 0 0 0 0 0 0 0 0 0 0 0 0 0 0 0 0 0 0 0 0 0 0 0 0 0 0 0 0 0 0 0 0 0 0 0 0 0 0 0 0 0 0 0 0 0.553399 1.1068 0.782624 0 0 0 0 0 0 0 0 0 0 0 0 0 0 0 0 0 0 0 0 0 0 0 0 0 0 0 0.5547 0.790569 0.395285 0 0 0 0 0 0 0 0 0 0 0 0 0 0 0 0 0 0 0 0 0 0 0 0 0 0 0 0 0 0 0 0 0 0 0 0 0 0 0 0 0 0 0 0 0 0 0 0 0 0 0 0 0 0 0 0 0 0 0 0 0 0 0 0 0 0 0 0 0 0 0 0 0 0 0 0 0 0 0 0 0 0.559017 0.790569 0.395285 0 0 0 0 0 0 0 0 0 0 0 0 0 0 0 0 0 0 0 0 0 0 0 0 0 0 0 0 0 0 0 0 0 0 0 0 0 0 0 0 0 0 0 0 0 0 0 0 0 0 0 0 0 0 0 0 0 0 0 0 0 0 0 0 0 0 0 0 0 2.21359 0.553399 1.1068 1.6602 0 0 0 0 0 0 0 0 0 0 0 0 0 0 0 2.49615 1.6641 0.83205 0 0 0 0 0 0 0 0 0 0 0.53033 1.06066 0.75 0 0 0 0 0 0 0 0 0 0 0 0 0 0 0 0 0 0 0 0 0 0 0 0 0 0 0 0 0 0 0 0 0 0 0 0 0 0 0 0 0 0 0 0 0.363803 0.727607 0.5 0 0 0 0 0 0 0 0 0 0 0 0 0 0 0 0 0 0 0 0 0 0 0 0 0 0 0 0 0 0 0 0 0 0 0 0 0 0 0 0 0 0 0 0 0 0 0 0 0 0 0 0 0 0 0 0 0 0 0 0 0 0 0.5 1 0.545705 0 0 0 0 0 0 0 0 0 0 0 0 0 0 0 0 0 0 0 0 0 0 0 0 0 0 0 0 0 0 0 0 0 0 0 0 0 0 0 0 0 0 0 0 0 0 0 0 0 0 0 0 0 0 0.55 1.07864 0.539319 0 0 0 0 0 0 0 0 0 0 0 0 0 0 0 2 0.5 1 1.5 0 0 0 0 0 0 0 0 0 0 0 0 0 0 0 0 0 0 0 0 0 0 2.23607 0.559017 1.11803 1.67705 0 0 0 0 0 0 0 0 0 0 0 0 0 0 0 0 0 0 0 0 0 0 0 0 0 0 0 0 0 0 0 0 0 0 0 0 0 0 0 0 0 0 0 0 0 0 0 0 0 0 0 0 0 0 0 0 0 0 0 0 0 0 0 0 0 0 0 0 0 0 0 0 0 0 0 0 0 0 0 0 0 0 0 0 0 0 0 0 0 0 0 0 0 0 0 0 0 0 0 0 0.424437 0.848875 0.553399 0 0 0 0 0 0 0 0 0 0 0 0 0 0 0 0 0 0 0 0 0 0 0 0 0 0 0 0 0 0.909509 1.81902 1.06066 0 0 0 0 0 0 0 0 0 0 0 0 0 0 0 0 0 0 0 0 0 0 0 0 0 0 0 0.559017 0.790569 0.395285 0 0 0 0 0 0 0 0 0 0 0 0 0 0 0 0 0 0 0 0 0 0 0 0 0 0 0 0 0 0 0 0 0 0 0 0 0 0 0 0 0 0 0 0 0 0 0 0 0 0 0 0 0 0 0 0 0 0 0 0 0 0 0 0 0 0 0 0 0 0 0 0 0 0 0 0 0 0 0 0 0 0 0 0 0 0 0 0 0 0 0 0 0 0 0 0 0 0 0 0 0 0 0 0 0.363803 0.727607 0.606339 0 0 0 0 0 0 0 0 0 1.00623 1.06066 0.53033 0 0 0 0 0 0 0 0 0 0 0 0 0 0 0 0 0 0 0 0 0 0 0 0 0 0 0 0 0 0 0 0 0 0 0 0 0 0 0 0 0 0 0 0 0 0 0 0 0 0 0 0 0 0 0 0 0 0 0 0 0 0 0 0 0 0 0 0 0 0 0 0 0 0 0 0 0 0 0 0 0 0 0 0 0 0 0 0 0 0 2.1 1.4 0.7 0 0 0 0 0 0 0 0 0 0 0 0 0 0 0 0 0 0 0 0 0 0 0 0 0 0 0 0 0 0 0 0 0 0 0 0 0 0 0 0 0 0 0 0 0 0 0 0 0 0 0 0 0 0 0 0 0 0 0 0 0 0 0 0 0 0 0 0 0 0 0 0 0 0 0 0 0 0 0 0 0 0 0 0 0 0 0 0 0 0 0 0 0 0 0 0 0 0 0 0 0 0 0 0 0 0 0 0 0 0 0 0 0 0 0 0 0 0 0 0 0.75 1.5 1 0 0 0 0.75 1.5 1.11803 0 0 0 0 0.632456 1.26491 0.707107 0 0 0 0 0 0.75 1.5 0.83205 2.23607 2.21359 2.57148 2.90689 2.60888 0 0 0 0 0 0 0 0 0 0 0 0 0 0 0 0 0 0 0 0 0 0 0 0 0 1.04006 1.5 0.75 0 0 0 0 0 0.632456 1.26491 0.707107 0 0 0 0 0 0 0 0 0 0 0 0 0 0 0 0 0 0 0 0 0 0 0.624038 1.24808 0.75 0 0 0 0 0 0 0 0 0 0 0 0 0 0 0 0 0 0 0 0 0 0 0 0 0 0 0 0 0 0 0 0 0 0 0 0 0 0 0 0 0 0 0 0 0 0 0 0 0 0 0 0.5 1 0.559017 0 0 0 0 0 0 0 0 0 0 0 0 0 0 0 0 0 0 0 0 0 0 0 0 0 0 0 0 0 0 0 0 0 0 0 0 0 0 0 0 0 0 0 0 0 0 0 0 0 0 0 0 0 0 0 0 0 0 0 0 0 0 0.33541 0.67082 0.545705 0 0 0 0 0 0 0 0 0 0 0 0 0 0 0 0 0 0 0 0 0 0 0 0 0 0 0 0 0 0 0 0 0 0 0 0 0 0 0 0 0 0 0 0 0 0 0 0 0 0 0 0 0 0 0 0 0 0 0 0 0 0 0 0 0 0 0 0 0 0 0 0 0 0 0 0 0 0 0 0 0 0 0 0 0 0 0 0 0 0 0 0 0 0 0 0 0 0 0 0 0 0 0 0 0 0 0 0 0 0 0 0 0 0 0 0 0 0 0 0 0 0 0 0 0 0 0 0 0 0 0 0 0 0 0 0 0 0 0 0 0 0 0 0 0 0 0 0 0 0 1.17874 2.35748 1.22984 0.559017 1.11803 1.25 0 0 0 0 0 0 0 0 0 0 0 0 0 0 0 0 0 0 0 0 0 0 0 0 0 0 0 0 0 0 0 0 0 0 0 0 0 0 0 0 0 0 0 0 0 0 0 0 0 0 0 0 0 0 0 0 0 0 0 0 0 0 0 0 0 0 0 0 0 0 0 0 0 0 0 0 0 0 0 0 0 0 0 0 0 0 0 0 0 0 0 0 0 0 0 0 0 0 0 0 0 0 0 0 0 0 0 0 0 0 0 0 0 0 0 0 0 0 0 0 0 0 0 0 0 0 0 0 0 0 0 0 0 0 0 0 0 0 0 0 0 0 0 0 0 0 0 0 0 0 0 0 0 0 0 0 0 0 0 0 0 0 0 0 0 0 0 0 0 0 0 0 0 0 0 0 0 0 0 0 0 0 0 0 0 0 0 0 0.83205 1.6641 0.83205 0 0 0 0 0 0 0 0 0 0 0 0 0 0 0 0 0 0 0 0 1.71499 2.82843 1.41421 0.424437 0.848875 0.559017 0 0 0 0 0 0 0 0.894427 1.78885 1.11417 0 0 0 0 0 0 0 0 0 0 0.424437 0.848875 0.424437 0 0 0 0 0 0 0 0 0 0 0 0 0 0 0 0 0 0 0 0 0 0 0 0 0 0 0 0 0 0 0 0 2.35339 1.56893 0.784465 0 0 0.75 1.5 0.948683 0 0 0 0 0 0 0 0 0 0 0 0 0 0 0 0 0 0 0 0 0 0 0 0 0 0 0 0 0.611557 0.458668 0.305778 0.152889 0 0 0 0 0 0 0 0 0 0 0 0 0 0 0 0 0 0 0 0 0 0 0 0 0 0 0 0 0 0 0 0 0 0 0 0 0 0 0 0 0 0 0 0 0 0 0 0 0.424437 0.848875 0.790569 0 0 0 0 0 0 0 0 0 0 0 0 0 0 0 0 1.09141 2.01246 1.00623 0 0 0 0 0 0 0 0 0 0 0 0 0 0 0 0 0 1.08271 0.725743 0.362871 0 0 0 0 0 0 0 0 0 0 0 0 0 0 0 0 0 0 0 0 0 0 0 0 0 0 0 0 0 0 0 0 0 0 0 0 0 0 0 0 0 0 0 0 0 0 0 0 0 0 0 0.278543 0.557086 0.835629 0 0 0 0 0 0 0 0.53033 0.970725 0.485363 0 0 0 0 0 0 0 0 0 0 0.395285 0.790569 0.559017 0 0 0 0 0 0 0 0 0 0 0 0 0 0 0 0 0 0 0 0 0 0 0 0 0 0 0 0.693375 1.21268 0.606339 0 0 0 0 0 0 0 0 0 0 0 0 0 0 0 0 0 0 1.45609 0.970725 0.485363 0 0 0 0 0 0 0 0 0 0 0 0 0 0 0 0 0 0 0 0 0 0 0 0 0 0 0 0 0 0 0 0 0 0 0 0 0 0 0 0 0 0 0 0 0 0 0 0 0 0 0 0 0 0 0 0 0 0 0 0 0 0 0 0 0 0 0 0 0 0 0 0 0 0 0 0 0.485363 0.970725 0.553399 0 0 0 0 0 0 0 0 0 0 0 0 0 0 0 0 0 0 0 0 0 0 0 0 0 0 0 0 0 0 0 0 0 0 0 0 0 0 0 0.67082 1 0.5 0 0 0 0 0 0 0 0 0 0 0 0 0 0 0 0 0.485363 0.970725 0.782624 0 0 0 0 0 0 0 0 0 0 0 0 0 0 0 0 0 0 0 0 0 0 2.84605 0 2.13454 1.42302 0.711512 0 0.711512 1.42302 2.13454 0 0 0 0 0 0 0 0 0 0 0 0 0 0 0 0 0 0 0 0 0 0 0 0 0 0 0 0 0 0 0 0 0.666973 1.26491 0.632456 0 0 0 0 0 0 0 0 0 0 0 0 0 0 0 0 0 0 0 0 0 0 0 0 0 0 0 0 0 0 0 0 0 0 0 0 0 0 0 0 0 0 0 0 0 0 0 0 0 0 0 0 0 0 0 0 0 0 0 0 0 0 0 0 0 0 0 0 0 0 0 0 0 0 0 0 0 0 0 0 0 0 0 2.23607 0.75 1.5 2.15058 1.94145 2.92617 2.7735 2.35748 2.08907 1.39272 0.696358 0 0 0 0 0 0 0 0 0 0 0 0 0 0 0 0 0 0 0 0 0 0 0 0 0.666973 1.11803 0.559017 0 0 0 0 0 0 0 0 0 0 0 0 0 0 0 0 0 0 0 0 0 0 0 0 0 0 0 0 0 0 0 0 0 0 0 0 0 0 0 0 0 0 0 0 0 0 0 0 0 0 0 0 0 0 0 0 0 0 0 0 0 0 0 0 0 0 0 0 0 0 0 0 0 0 0 0 0 0 0 0 0 0 0 0 0 0 0 0 0 0 0 0 0 0 0 0.75 1.5 0.948683 0 0 0 0 0 0 0 0 0 0 0 0 0 0 0 0 0 0 0 0 0 0 0 0 0 0 0 0 0 0 0.948683 1.89737 0.948683 0 2.49615 0.624038 1.24808 1.87211 1.45149 0.669612 1.33922 1.53768 1.6602 1.1068 0.553399 0 0 0 2.23607 0.553399 1.1068 1.6602 2.65754 3.18198 3.71231 0 0 0 0 0 0 0 0 0 0 0 0 0 0 0 0 0 0 0 0 0 0 0 0 0 0 0 0 0 0 0 0 0 0 0.970725 1.69775 0.848875 0 0 0 0 0 0 0 0 0 0 0 0 0 0 0 0 0 0 0 0 0 0.632456 1.26491 0.632456 0 0 0 0 0 0 0 0 0 0 0 0 0 0 0 0 0 0 0 0 0 0 0 0 0 0 0 0 0 0 0 0 0 0 0 0 0 0 0 0 0 0 0 0 0 0 0 0 0 0 0 0 0 0 0 0 0 0 0 0 0 0 0 0 0 0 0 0 0 0 0 0 0 0 0 0 0 0 0 0 0 0 0 0 0 0 0 0 0 0 0 0 0 0 0 0 0 0 0 0 0 0 0 0 0 0 0 0 0 0 0 0 0 0 0 0 0 0 0 0 0 0 0 0 0 0 0 0 0 0 0 1.08861 0.725743 0.362871 0 0 0 0 0 0 0 0 0 0 0 0 0 0 0 0 0 0 0 0 0 0 0 0 0 0 0 0 0 0 0 0 0 0 0 0 0 0 0 0 0 0 1.4425 1.08187 0.721249 0.360624 0.49 0.98 1.47 0 0 0 0 0 0 0 0 0 0 0 0 0 0 0 0 0 0 0 0 0 0 0 0 0 0 0 0 0 0 0 0 0 0 0 0 0 0 0 0 0 0 0.53033 1.06066 0.67082 0 0.559017 0.9 0.45 0 0 0 0 0 0 0 0 0 0 0 0 0 0 0 0 0 0 0 0 0 0 0 0 0 0 0 0 0 0 0 0 0 0 0 0 0 0 0 0 0 0 0 0 0 0.441261 0.848875 0.424437 0 0 0 0 0 0 0 0 0 0 0 0 0 0 0 0 0 0 0 0 0 0 0 0 0 0 0 0 0 0 0 0 0 0 0 0 0 0 0 0 0 0 0 0 0 0 0 0 0 0 0 0 0 0 0 0 0 0 0 0 0 0 0 0 0 0 0 0 0 0.559017 1.11803 0.559017 0 0 0 0 0 0 0 0 0 0 0 0 0 0 0.395285 0.790569 0.5547 0 0 0 0 0 0 0 0 0 0 0 0 0 0 0 0 0 0 0 0 0 0 0 0 0 0 0 0 0 0 0 0 0.632456 1.26491 0.707107 0 0 0 0 0 0 0 0 0 0 0 0 0 0 0 0 0 0 0 0 0 0 0 0 0 0.559017 0.970725 0.485363 0 0 0 0 0 0 0 0 0 0 0 0 0 0 0 0 0 0 0 0 0 0 0 0 0 0 0 0 0 0 0 0 0 0 0 0 0 0 0 0 0 0 0 0 0 0 0 0 0 0 0 0 0 0 0 0 0 0 0 0 0 0 0 0 0 0 0.363803 0.727607 0.395285 0 0 0 0 0 0 0 0.782624 0.970725 0.485363 0 0 0 0 0 0 0 0 0 0 0 0 0 0 0 0 0 0 0 0 0 0 0 0 0 0 0 0 0 0 0 0 0 0 0 0 0 0 0 0 0 0 0.441261 0.882523 0.553399 0 0 0 0 0 0.869626 1.52543 0.762713 0 2.25 1.73925 0.869626 0 0 0 0 0 0 0 0 0 0 0.424437 0.848875 0.782624 0 0 0 0 0 0 0 0 0 0 0 0 0 0 0 0 0 0 0 0 0 0 0 0 0 0 0 0 0 0 0 0 0 0 0 0 0 0 0 0 0 0 0 0 0 0 0 0 0 0 0 0 0 0 0 0 0 0 0 0 0 0 0 0 0 0 0 0 0 0 0 0 0 0 0 0 0 0 0 0 0 0 2.13454 1.42302 0.711512 0 0 0 0 0 0 0 0 0 0.711512 0.67082 0.33541 0 0 0 0 0 0 0 0 0 0 0 0 0 0 0 0 0 0 0 0 0 0 0 0.5 1 0.67082 0 0 0 0 0 0 0 0 0 0 0 0 0 0 0 0 0 0 0 0 0 0 0 0 0 0 0 0 0 0 0 0 0 0 0 0 0 0 0 0 0 0 0 0 0 0 0 0 0 0 0 0 0 0 0 0 0 0 0 0 0 0 0 0 0 0 0 0 0 0 0 0 0 0 0 0 0 0 0 0 0 0 0 0.03