# vtk DataFile Version 1.0
Unstructured Grid Example
ASCII

DATASET UNSTRUCTURED_GRID
POINTS 11682 float
76 44 0
73 46 0
75.25 44.5 0
74.5 45 0
73.75 45.5 0
129 45 0
126 45 0
128.25 45 0
127.5 45 0
126.75 45 0
47 77 0
45 79 0
46.5 77.5 0
46 78 0
45.5 78.5 0
53 334 0
50 335 0
52.25 334.25 0
51.5 334.5 0
50.75 334.75 0
267.45 235.51 0
272 235 0
268.587 235.382 0
269.725 235.255 0
270.863 235.128 0
298 133 0
298 129 0
298 132 0
298 131 0
298 130 0
265 64 0
262 63 0
264.25 63.75 0
263.5 63.5 0
262.75 63.25 0
124 47 0
125.5 45.5 0
125 46 0
124.5 46.5 0
124 21 0
117 20 0
122.25 20.75 0
120.5 20.5 0
118.75 20.25 0
296 119 0
297.5 126.5 0
297 124 0
296.5 121.5 0
297 127 0
297.25 127.5 0
297.5 128 0
297.75 128.5 0
296.25 121 0
296.5 123 0
296.75 125 0
305 384 0
301 384 0
304 384 0
303 384 0
302 384 0
95 175 0
97 179 0
95.5 176 0
96 177 0
96.5 178 0
95.735 173.53 0
95.5512 173.898 0
95.3675 174.265 0
95.1838 174.632 0
79 42 0
76.75 43.5 0
77.5 43 0
78.25 42.5 0
285 225 0
283 226 0
284.5 225.25 0
284 225.5 0
283.5 225.75 0
158 186 0
158 192 0
158 187.5 0
158 189 0
158 190.5 0
149 78 0
150 80 0
149.25 78.5 0
149.5 79 0
149.75 79.5 0
216 63 0
220 63 0
217 63 0
218 63 0
219 63 0
229 84 0
226 90 0
228.25 85.5 0
227.5 87 0
226.75 88.5 0
270 72 0
267 69 0
269.25 71.25 0
268.5 70.5 0
267.75 69.75 0
18 190 0
23 192 0
19.25 190.5 0
20.5 191 0
21.75 191.5 0
236 109 0
238 120 0
236.5 111.75 0
237 114.5 0
237.5 117.25 0
82 171 0
89 169 0
83.75 170.5 0
85.5 170 0
87.25 169.5 0
257 157 0
263 159 0
258.5 157.5 0
260 158 0
261.5 158.5 0
246 308 0
249 307 0
246.75 307.75 0
247.5 307.5 0
248.25 307.25 0
161 180 0
160.25 181.5 0
159.5 183 0
158.75 184.5 0
94 264 0
92 267 0
93.5 264.75 0
93 265.5 0
92.5 266.25 0
168 345 0
167 342 0
167.75 344.25 0
167.5 343.5 0
167.25 342.75 0
35 119 0
38 121 0
35.75 119.5 0
36.5 120 0
37.25 120.5 0
146 89 0
146 85 0
146 88 0
146 87 0
146 86 0
153 347 0
155 346 0
153.5 346.75 0
154 346.5 0
154.5 346.25 0
216 386 0
206 387 0
213.5 386.25 0
211 386.5 0
208.5 386.75 0
282.715 328.51 0
285 330 0
283.286 328.882 0
283.857 329.255 0
284.429 329.628 0
284 326 0
283.679 326.628 0
283.357 327.255 0
283.036 327.882 0
250 309 0
249 308.75 0
248 308.5 0
247 308.25 0
272 231 0
270 233 0
271.5 231.5 0
271 232 0
270.5 232.5 0
249 311 0
249.75 309.5 0
249.5 310 0
249.25 310.5 0
214 278 0
214 275 0
214 277.25 0
214 276.5 0
214 275.75 0
227 45 0
222 47 0
225.75 45.5 0
224.5 46 0
223.25 46.5 0
166 61 0
163 62 0
165.25 61.25 0
164.5 61.5 0
163.75 61.75 0
223 44 0
217 47 0
221.5 44.75 0
220 45.5 0
218.5 46.25 0
235 181 0
237 180 0
235.5 180.75 0
236 180.5 0
236.5 180.25 0
281 122 0
281 126 0
281 123 0
281 124 0
281 125 0
257 235 0
265 236 0
259 235.25 0
261 235.5 0
263 235.75 0
49 75 0
48.5 75.5 0
48 76 0
47.5 76.5 0
18 187 0
18 187.75 0
18 188.5 0
18 189.25 0
48 334 0
49.5 334.75 0
49 334.5 0
48.5 334.25 0
230 47 0
228 48 0
229.5 47.25 0
229 47.5 0
228.5 47.75 0
252 59 0
249 60 0
251.25 59.25 0
250.5 59.5 0
249.75 59.75 0
279 79 0
274 78 0
277.75 78.75 0
276.5 78.5 0
275.25 78.25 0
63.775 54.265 0
63 52 0
63.5812 53.6988 0
63.3875 53.1325 0
63.1938 52.5662 0
62 55 0
62.4438 54.8162 0
62.8875 54.6325 0
63.3312 54.4488 0
232 92 0
227.5 90.5 0
229 91 0
230.5 91.5 0
230 88 0
231.5 91 0
231 90 0
230.5 89 0
175 168 0
173 166 0
174.5 167.5 0
174 167 0
173.5 166.5 0
219 68 0
217 65 0
218.5 67.25 0
218 66.5 0
217.5 65.75 0
171 340 0
168 341.5 0
169 341 0
170 340.5 0
212 49 0
209 50 0
211.25 49.25 0
210.5 49.5 0
209.75 49.75 0
132 87 0
131 89 0
131.75 87.5 0
131.5 88 0
131.25 88.5 0
151 75 0
150.5 75.75 0
150 76.5 0
149.5 77.25 0
155 57 0
153 53 0
154.5 56 0
154 55 0
153.5 54 0
64 57 0
62 59 0
63.5 57.5 0
63 58 0
62.5 58.5 0
46 73 0
49 71 0
46.75 72.5 0
47.5 72 0
48.25 71.5 0
61 61 0
58 63 0
60.25 61.5 0
59.5 62 0
58.75 62.5 0
139 132 0
131 134 0
137 132.5 0
135 133 0
133 133.5 0
36 115 0
37 117 0
36.25 115.5 0
36.5 116 0
36.75 116.5 0
42 80 0
44 76 0
42.5 79 0
43 78 0
43.5 77 0
57 61 0
53 65 0
56 62 0
55 63 0
54 64 0
44 71 0
50.75 66.5 0
48.5 68 0
46.25 69.5 0
97 261 0
96.25 261.75 0
95.5 262.5 0
94.75 263.25 0
164 213 0
165 210 0
164.25 212.25 0
164.5 211.5 0
164.75 210.75 0
122 224 0
119 222 0
121.25 223.5 0
120.5 223 0
119.75 222.5 0
122 221 0
122 221.75 0
122 222.5 0
122 223.25 0
124 215 0
121 217 0
123.25 215.5 0
122.5 216 0
121.75 216.5 0
124 218 0
124 215.75 0
124 216.5 0
124 217.25 0
161 201 0
163 204 0
161.5 201.75 0
162 202.5 0
162.5 203.25 0
159 204 0
162 204 0
161 204 0
160 204 0
158 198 0
162 199 0
159 198.25 0
160 198.5 0
161 198.75 0
161.75 199.5 0
161.5 200 0
161.25 200.5 0
157 202 0
160 201.25 0
159 201.5 0
158 201.75 0
181 271 0
180 274 0
180.75 271.75 0
180.5 272.5 0
180.25 273.25 0
118 216 0
119 219 0
118.25 216.75 0
118.5 217.5 0
118.75 218.25 0
176 214 0
177 212 0
176.25 213.5 0
176.5 213 0
176.75 212.5 0
174 210 0
174.5 211 0
175 212 0
175.5 213 0
157 195 0
157.75 192.75 0
157.5 193.5 0
157.25 194.25 0
160 196 0
158.5 193 0
159 194 0
159.5 195 0
172.96 339.755 0
169.24 343.689 0
170.48 342.378 0
171.72 341.066 0
170.25 341.25 0
169.5 342.5 0
168.75 343.75 0
169 210 0
166 210 0
167 210 0
168 210 0
238 306 0
243 309 0
239.25 306.75 0
240.5 307.5 0
241.75 308.25 0
196 217 0
195 215 0
195.75 216.5 0
195.5 216 0
195.25 215.5 0
298 384 0
281 384 0
293.75 384 0
289.5 384 0
285.25 384 0
306 387 0
300 384.75 0
302 385.5 0
304 386.25 0
288 383 0
282.75 383.75 0
284.5 383.5 0
286.25 383.25 0
290.5 383.25 0
293 383.5 0
295.5 383.75 0
267 330 0
273 330 0
268.5 330 0
270 330 0
271.5 330 0
267 385 0
263 384 0
266 384.75 0
265 384.5 0
264 384.25 0
46 336 0
47.5 334.5 0
47 335 0
46.5 335.5 0
41 336 0
46.25 334.5 0
44.5 335 0
42.75 335.5 0
56 306 0
58 312 0
56.5 307.5 0
57 309 0
57.5 310.5 0
57 335 0
56 334.75 0
55 334.5 0
54 334.25 0
46 230 0
47 232 0
46.25 230.5 0
46.5 231 0
46.75 231.5 0
46 234 0
46.75 232.5 0
46.5 233 0
46.25 233.5 0
57 227 0
54 230 0
56.25 227.75 0
55.5 228.5 0
54.75 229.25 0
44 235 0
45.5 234.25 0
45 234.5 0
44.5 234.75 0
83 270 0
89 269 0
84.5 269.75 0
86 269.5 0
87.5 269.25 0
39 266 0
40 274 0
39.25 268 0
39.5 270 0
39.75 272 0
38 264 0
38.25 264.5 0
38.5 265 0
38.75 265.5 0
254 311 0
253 310.5 0
252 310 0
251 309.5 0
282 330 0
279 330 0
276 330 0
276 329 0
269 323 0
274.25 327.5 0
272.5 326 0
270.75 324.5 0
306 380 0
305.75 381 0
305.5 382 0
305.25 383 0
303 382 0
303.5 382.5 0
304 383 0
304.5 383.5 0
305.755 384.55 0
305.566 384.413 0
305.378 384.275 0
305.189 384.137 0
33 336 0
39 336 0
37 336 0
35 336 0
91 270 0
88 274 0
90.25 271 0
89.5 272 0
88.75 273 0
56 314 0
54 311 0
55.5 313.25 0
55 312.5 0
54.5 311.75 0
52 302 0
54 307 0
52.5 303.25 0
53 304.5 0
53.5 305.75 0
75 338 0
60 335 0
71.25 337.25 0
67.5 336.5 0
63.75 335.75 0
58 316 0
60 326 0
58.5 318.5 0
59 321 0
59.5 323.5 0
60 319 0
60 324.25 0
60 322.5 0
60 320.75 0
49 302 0
46 304 0
48.25 302.5 0
47.5 303 0
46.75 303.5 0
259 381 0
261 382 0
259.5 381.25 0
260 381.5 0
260.5 381.75 0
260 386 0
261.75 385.75 0
263.5 385.5 0
265.25 385.25 0
268.5 324.75 0
268 326.5 0
267.5 328.25 0
261.5 382.5 0
262 383 0
262.5 383.5 0
256 386 0
258 385 0
256.5 385.75 0
257 385.5 0
257.5 385.25 0
258.5 385.25 0
259 385.5 0
259.5 385.75 0
250 385 0
251.5 385.25 0
253 385.5 0
254.5 385.75 0
227 332 0
221 331 0
225.5 331.75 0
224 331.5 0
222.5 331.25 0
225 330 0
224 330.25 0
223 330.5 0
222 330.75 0
186 312 0
184 316 0
185.5 313 0
185 314 0
184.5 315 0
180 334 0
182 333 0
180.5 333.75 0
181 333.5 0
181.5 333.25 0
178 336 0
178.5 335.5 0
179 335 0
179.5 334.5 0
90 35 0
86 37 0
89 35.5 0
88 36 0
87 36.5 0
82 39 0
80 40 0
81.5 39.25 0
81 39.5 0
80.5 39.75 0
85 37.5 0
84 38 0
83 38.5 0
93 165 0
91.1204 170.414 0
92.5301 166.353 0
92.0602 167.707 0
91.5903 169.06 0
254 231 0
253 233 0
253.75 231.5 0
253.5 232 0
253.25 232.5 0
216 181 0
217 184 0
216.25 181.75 0
216.5 182.5 0
216.75 183.25 0
262 229 0
261 232 0
261.75 229.75 0
261.5 230.5 0
261.25 231.25 0
236 185 0
232 183 0
235 184.5 0
234 184 0
233 183.5 0
158 178 0
157 181 0
157.75 178.75 0
157.5 179.5 0
157.25 180.25 0
158.75 178.5 0
159.5 179 0
160.25 179.5 0
139 210 0
137 208 0
138.5 209.5 0
138 209 0
137.5 208.5 0
223 70 0
225 73 0
223.5 70.75 0
224 71.5 0
224.5 72.25 0
259 63 0
261 65 0
259.5 63.5 0
260 64 0
260.5 64.5 0
243 53 0
241 52 0
242.5 52.75 0
242 52.5 0
241.5 52.25 0
262 60 0
248.076 53.301 0
258.519 58.3252 0
255.038 56.6505 0
251.557 54.9757 0
251 56 0
259.25 59 0
256.5 58 0
253.75 57 0
261.25 63 0
260.5 63 0
259.75 63 0
255 59 0
256.75 59.25 0
258.5 59.5 0
260.25 59.75 0
258 61 0
257.25 60.5 0
256.5 60 0
255.75 59.5 0
152 58 0
151 60 0
151.75 58.5 0
151.5 59 0
151.25 59.5 0
151 49 0
149 47 0
150.5 48.5 0
150 48 0
149.5 47.5 0
149 69 0
150 72 0
149.25 69.75 0
149.5 70.5 0
149.75 71.25 0
147 53 0
147.775 55.265 0
147.194 53.5662 0
147.387 54.1325 0
147.581 54.6988 0
146 56 0
147.331 55.4488 0
146.887 55.6325 0
146.444 55.8162 0
288 224 0
284 223 0
287 223.75 0
286 223.5 0
285 223.25 0
282 233 0
286 231 0
283 232.5 0
284 232 0
285 231.5 0
268 316 0
267 314 0
267.75 315.5 0
267.5 315 0
267.25 314.5 0
282 230 0
285 229 0
282.75 229.75 0
283.5 229.5 0
284.25 229.25 0
266 230 0
270 229 0
267 229.75 0
268 229.5 0
269 229.25 0
290 328 0
291 330 0
290.25 328.5 0
290.5 329 0
290.75 329.5 0
298 329 0
296 328.75 0
294 328.5 0
292 328.25 0
292.75 329.75 0
294.5 329.5 0
296.25 329.25 0
287.695 329.51 0
285.674 329.878 0
286.347 329.755 0
287.021 329.632 0
304 329 0
302.5 329 0
301 329 0
299.5 329 0
190 79 0
189 75 0
189.75 78 0
189.5 77 0
189.25 76 0
189 84 0
189.25 82.75 0
189.5 81.5 0
189.75 80.25 0
153 44 0
149 44 0
152 44 0
151 44 0
150 44 0
151 46 0
149.5 44.5 0
150 45 0
150.5 45.5 0
149 66 0
148 62 0
148.75 65 0
148.5 64 0
148.25 63 0
146 80 0
148.25 78.5 0
147.5 79 0
146.75 79.5 0
147 75 0
146.25 78.75 0
146.5 77.5 0
146.75 76.25 0
171 126 0
172 124 0
171.25 125.5 0
171.5 125 0
171.75 124.5 0
140 148 0
137 148 0
139.25 148 0
138.5 148 0
137.75 148 0
97 33 0
95 34 0
96.5 33.25 0
96 33.5 0
95.5 33.75 0
99 78 0
101 81 0
99.5 78.75 0
100 79.5 0
100.5 80.25 0
103 76 0
102 76.5 0
101 77 0
100 77.5 0
101.5 79.75 0
[...]
POINT_DATA 11682
SCALARS scalars float 1
LOOKUP_TABLE default
0 0 0 0 0 0 0 0 0 0 0 0 0 0 0 0 0 0 0 0 0.138593 0 0.103945 0.0692965 0.0346482 0 0 0 0 0 0 0 0 0 0 0 0 0 0 0 0 0 0 0 0 0 0 0 0 0 0 0 0 0 0 0 0 0 0 0 0 0 0 0 0 0.519723 0.389793 0.259862 0.129931 0 0 0 0 0 0 0 0 0 0 0 0 0 0 0 0 0 0 0 0 0 0 0 0 0 0 0 0 0 0 0 0 0 0 0 0 0 0 0 0 0 0 0 0 0 0 0 0 0 0 0 0 0 0 0 0 0 0 0 0 0 0 0 0 0 0 0 0 0 0 0 0 0 0 0 0 0 0 0 0 0 0 0 0 0 0 0 0 0 0 0 0 0 0.866206 0 0.668489 0.445659 0.22283 0 0.216551 0.433103 0.649654 0 0 0 0 0 0 0 0 0 0 0 0 0 0 0 0 0 0 0 0 0 0 0 0 0 0 0 0 0 0 0 0 0 0 0 0 0 0 0 0 0 0 0 0 0 0 0 0 0 0 0 0 0 0 0 0 0 0 0 0 0 0 0 0 0 0 0 0 0 0 0 0 0 0 0 0.611557 0 0.458668 0.305778 0.152889 0 0.18375 0.3675 0.55125 0 0 0 0 0 0 0 0 0 0 0 0 0 0 0 0 0 0 0 0 0 0 0 0 0 0 0 0 0 0 0 0 0 0 0 0 0 0 0 0 0 0 0 0 0 0 0 0 0 0 0 0 0 0 0 0 0 0 0 0 0 0 0 0 0 0 0 0 0 0 0 0 0 0 0 0 0 0 0 0 0 0 0 0 0 0 0 0 0 0 0 0 0 0 0 0 0 0 0 0 0 0 0 0 0 0 0 0 0 0 0 0 0 0 0 0 0 0 0 0 0 0 0 0 0 0 0 0 0 0 0 0 0 0 0 0.624038 1.24808 0.790569 0 0 0 0 0 0 0 0 0 0 0 0 0 0 0 0 0 0.62463 0.388659 0.777317 0.904341 0 0 0 0 0 0 0 0 0 0 0 0 0 0 0 0 0 0 0 0 0 0 0 0 0 0 0 0 0 0 0 0 0 0 0 0 0 0 0 0 0 0 0 0 0 0 0 0 0 0 0 0 0 0 0 0 0 0 0 0 0 0 0 0 0 1 0.25 0.5 0.75 0 0 0 0 0 0 1.18585 0.790569 0.395285 0 0 0 0 0 0 0 0 0 0 0 0 0 0 0 0 0 0 0 0 0 0 0 0 0 0 0 0 0 0 0 0 0 0 0.542331 0.406748 0.271165 0.135583 0 0 0 0 0 0 0 0 0 0 0 0 0 0 0 0 0 0 0 0 0 0 0 0 0 0 0 0 0 0 0 0 0 0 0 0 0 0 2.12132 0 1.59099 1.06066 0.53033 0 0 0 0 0 0 0 0 0 0 0 0 0 0 0 0 0 0 0 0 0 0 0 0 0 0 0 0 0 0 0 0 0 0 0 0 0 0 0 0 0 0 0 0 0 0 0 0 0 0 0 0 0 0 0 0 0 0 0 0.772692 0.726194 1.45239 0.448962 0 0 0 0 0 0 0 0 0 0 0 0 0 0 0 0 0 0 0 0 0 0 0 0 0 0 0 0 0 0 0 0 0 0 0 0 0 0 0 0 0 0 0 0 0 0 0 0 0 0.15904 0.384319 0.768638 1.11816 0 0 0 0 0 0 0 0 0 0 0 0 0 0 0 0 0 0 0 0 0 0 0 0 0 0 0 0.707107 1.41421 0.790569 0 0.611557 0.152889 0.305778 0.458668 0 1.08271 0.960579 0.48029 0 0 0 0 0 0 0 0 0 0 0 0 0 0 0 0 0 0 0 0 0 0 0 0 0 0 0 0 0 0 0 0 0 0 0 0 0 0.49 0.1225 0.245 0.3675 0 0 0 0 0 0 0 0 0 0 0 0 0 0 0 0 0 0 0 0 0 0 0 0 0 0 0 0 0 0 0 0 0 0 0 1.78885 0 1.34164 0.894427 0.447214 0 0 0 0 0 0 0 0 0 0 0 0 0 0 0 0 0 0 0 0 0 0 0 0 0 0 0 0 0 0 0 0 0 0 0 0 0 0 0 0 0 0 0 0 0 0 0.604166 0.151042 0.302083 0.453125 0 0 0 0 0 0 0 0 0 0 0 0 0 0 0 0 0 0 0 0 0 0 0 0 0 0 0 0 0 0 0 0 0 0 0 0 0 0 0 0 0 0 0 0 0 0 0 0 0 0 0 0 0 0 0 0 0 0.545705 0.790569 0.395285 0 0 0 0 0 0 0 0 0 0 0 0 0 0 0 0 0 0 0 0 0 0 0 1.2107 0 1.10444 0.736292 0.368146 0 0 0 0 0 0 0 0 0 0 0 0 0 0 0.98 0.245 0.49 0.735 0 0 0 0 0 0 0 0 0 0 0 0 0 0 0 0 0 0 0 0 0 0 0 0 0 0 0 0 0 0 0.328702 0 1.09511 0.779585 0.389793 0 0.0821755 0.164351 0.246526 0 0 0 0 0 0 0 0 0 0 0 0 0 0 0 0 0 0 0 0 0 0 0 0.0872776 0.598407 0.398938 0.199469 0.0218194 0.0436388 0.0654582 0.0218194 0.0436388 0.0654582 0.31414 0 0.316097 0.210731 0.105366 0.235605 0.15707 0.0785349 0 0 0 0 0 0 0 0 0 0 0 0 0 0 0 0 0 0 0 0 0 0 0 0.434639 0.10866 0.21732 0.325979 0 0 0 0 0 0 0 0 0 0 0 0 0 0.589277 0.559037 0.372691 0.186346 0.147319 0.294638 0.441958 0 0 0 0 0 0 0 0 0 0 0 0 0 0 0 0 0 0 0 0 0 0 0 0 0 0 0 0 0 0 0 0 0 0 0 0 0 0 0.18375 0.3675 0.55125 0 0 0 0 0 0 0.475655 0.373729 0.747459 0.304765 0 0.356742 0.237828 0.118914 0 0 0 0 0 0 0 0 0.912316 0.237828 0.475655 0.713483 0 0 0 0 0 0 0 0 0 0 0 0.53033 1 0.5 0 0 0 0 0 0 0 0 0 0 0 0 0 0 0 0 0 0 0 0 0 0 0 0 0 0 0 0 0 0 0 0 0 0 0 0 0 0 0 0 0 0 0 0 0 0 0 0 0 0 0 0 0 0 0 0 0 0 0 0 0 0 0 0 0.161296 0.040324 0.0806481 0.120972 0 0 0 0 0 0 0 0 0 0 0 0 0 0 0 0 0 0 0 0 0 0 0 0 0 0 0 0 0 0 0 0 0 0 0 0 0 0 0 0 0 0 0 0 0 0 0 0 0 0 0 0 0 0 0 0 0 0 0 0 0 0 0 0 0 0 0 0 0 0.387379 0.0968448 0.19369 0.290534 0 0 0 0 0 0 0 0 0 0 0 0 0 0 0 0 0 0 0 0 0 0 0 0 0 0 0 0 0 0 0 0 0 0 0 0 0 0 0 0 0 0 0 0 0 0 0 0 0 0 0 0 0 0 0 0 0 0 0 0 0 0 0 0 0 0 0 0 0 0 0 0 0 0 0 0 0 0 0 0 0 0 0 0 0 0 0 0 0 0 0 0 0 0 0 0 0.713483 0.475655 0.237828 0 0 0 0 0 0 0 0 0 0 0 0 0.742781 1.48556 1.1094 0 0 0 0 0 0 0 0 0 0 0 0 0 0 0 0 0 0 0 0 0 0 0 0 0 0 0 0 0 0 0 0 0 0 0 0 0 0 0 0 0 0 0 0 0 0 0 0 0.798326 0.216103 0.432206 0.648309 0 0 0 1.03945 0.779585 0.519723 0.259862 0 0 0 0 0 0 0 0 0 0 0 0 1.50152 0.361285 0.72257 1.08385 0 0 0 0 0 0 0 0 0 0 0 0 0.356527 0.164351 0.328702 0.493053 0 0 0 0 0 0.328702 0.246526 0.164351 0.0821755 0 0 0 0 0 0 0 0 0 0 0 0 0 0 0 0 0 0 0 0 0 0 0 0 0 0 0 0 0 0 0 0 0 0 0 0 0 0 0 0 0 0 0 0 0 0 0 0 0 0 0 0 0 0.424437 0.848875 0.553399 0 0 0 0 0 0 0 0 0 0 0 0.539319 1.07864 0.55 0 0 0 0.113457 0 0.137208 0.0914721 0.0457361 0.657404 0.0915755 0.474253 0.458822 0.493053 0.328702 0.164351 0 0 0 0 0 0 0 0 0 0 0 0 0 0 0 0 0 0 0 0 0 0 0 0 0 0 0 0 0 0.49 0.1225 0.245 0.3675 0 0 0 0 0 0 0 0 0 0 0 0 0 0.49 0.3675 0.245 0.1225 0 0 0 0 0 0 0 0 0 0 0 0 0 0 0 0.49 0.1225 0.245 0.3675 0 0.3675 0.245 0.1225 0 0 0 0 0 0 0 0 0 0 0 0 0 0 0 0 0.262613 0.525226 0.787839 0 0 0 0 0 0 0 0 0 0 0 0 0 0 0 0 0 0 0 0 0 0 0 0 0 0 0 0 0 0 0 0 0.409458 0.272972 0.136486 0 0 0 0 0 0 0 0 0 0 0.53033 1.06066 0.67082 0 0 0 0 0 0 0 0 0.489152 0.366864 0.244576 0.122288 0.154683 0.309367 0.46405 0 0 0 0.679105 0 0.509329 0.339553 0.169776 0 0 0 0 0 0 0 0 0 0 0 0 0 0 0 0 0 0 0 0 0 0 0 0 0 0 0 0.883883 1.76777 2.2981 0 0 0 0 1.31519 0.328798 0.657596 0.986394 1.31519 1.31519 0.894427 0 0 0 0 0 0 0 0.687696 0.171924 0.343848 0.515772 0 0 0 0 0 0 0 0 0 0 0 0 0 0 0 0 0 0 0 0 0 0 0 0 0 0 0 0 0 0 0 0 0 0.588348 0.147087 0.294174 0.441261 0.474342 0.948683 0.474342 1.22573 1.1068 0.553399 0 0 0 0 0 0 0 0 0 0 0 0 0 2.42536 1.81902 1.21268 0.606339 0 0 0 0 0 0 0 0 0 0 0 0 0 0 0 0 0 0 0 0 0 0 0 0 0 0 0.415949 0.103987 0.207974 0.311961 0 0 0 0 0 0 0 0 0 0 0 0 0 0 0 0 0 0 0 0 0 0 0 0 0 0 0 0 0 0 0 0.284724 0.0711809 0.142362 0.213543 0 0 0 0 0 0 0 0 0 0 1.42611 1.16214 0.774758 0.387379 0 0 0 0 0 0 0 0 0 0 0 0 0 0 0 0 0 0 0 0 0 0 0 0 0 0 0 0 0 0 0 0 0 0 0 0 0 0 0 0 0 0 0 0 0 0 0 0 0 0 0 0 0 0 0 0 0 0 0 0 0 0 0 0 0 0 0 0 0 0 0 0 0 0 0 0 0 0.707107 1.26491 0.632456 0 0 0 0 0 0 0 0 0 0 0 0 0 0 0 0 0 0 0 0 0 0 0 0 0 0 0 0 0 0 0 0 0 0 0 0 0 0 0 0 0 0 0 0 0 0 0 0 0 0 0 0 0 0 0 0 0 0 0 0 0 0 0 0 0 0 0 0 0 0 0 0 0 0 0 0 0 0 0 0 0 0 0 0 0 0 0 0 0 0 0 0 0 0 0 0 0 0 0 0 0 0 0 0 0 0 0 0.482462 0.361846 0.241231 0.120615 0 0.901388 0.706688 0.353344 0.638847 0.425898 0.212949 0 0 0 0 0 0.867729 0.216932 0.433864 0.650797 0 0 0 0 0 0 0 0 0 0 0 0 0 0.75 1.06066 0.53033 0 0 0 0 0 0 0 0 0 0 0 0 0 0 0 0 0.225697 0.193571 0.129047 0.0645237 0.0564244 0.112849 0.169273 0 0 0 0 0 0 0 0.3675 0.245 0.1225 0 0 0 0 0 0 0 0 0 0 0 0 0.356527 0 0.493053 0.328702 0.164351 0 0 0 0 0 0 0 0 0 0 0 0 0 0 0 0.11928 0.0795202 0.0397601 0.101213 0.202425 0.296057 0 0 0 0 0 0 0 0 0 0 0 0 0 0 0 0 0 0 0 0 0 0 0 0 0 0 0 0 0 0.325979 0.21732 0.10866 0 0 0.33541 0.67082 0.559017 0 0 0 0 0 0 0 0 0 0 0 0 0 0 0 0 0 0 0 0 0 0 0 0 0 0 0 0 0 0 0 0 0 0 0 0 0 0 0 0 0 0 0 0 0 0 0 0 0 0 0 0 0 0 0 0 0 0 0 0 0 0 0 0 0 0 0 0 0 0 0 0 0 0 0 0 0 0.619806 0.30131 0.60262 0.0106066 0 0 0 0 0 0 0 0 0 0 0 0 0 0 0 0 0 0 0 0 0 0 0 0 0 0 0 0 0 0 0 0 0 0 0 0 0 0 0 0 0 0 0 0 0 0 0 0 0 0 0 0 0 0 0 0 0 0.267396 0.178264 0.0891318 0 0 0 0 0 0 0.5 1 0.67082 0.619806 0 0.464855 0.309903 0.154952 0 0.519723 0.346482 0.173241 0 0 0 0 0 0 0 0 0 0 0 0 0 0 0 0 0 0 0 0 0 0 0 0.657404 0 0.493053 0.328702 0.164351 0 0.779585 0.519723 0.259862 0 0 0 0 0 0 0 0 0 0.53033 0.970725 0.485363 0.329102 0 0.246827 0.164551 0.0822755 0 0 0 0 0 0 0 0 0 0 0 0 0 0 0 0 0 0 0 0 0 0 0 0 0 0 0 0 0 0 0 0 0 0 0 0 0 0 0 0 0 0 0 0 0 0 0 0 0 0 0 0 0 0 0 0 0 0 0 0 0 0 0 0 0 0 0 0 0 0 0 0 0 0 0 0 0 0 0 0 0 0 0 0 0 0 0 0 0 0 0 0 0 0 0 0 0 0 0 0 0 0 0 0 0 0 0 0 0 0.711512 1.24808 0.624038 0.693375 1.34164 0.67082 0 0 0 0 0 0 0 0 0 0 0 0 0 0 0 0 0 0 0 0 0 0 0.49 0.384388 0.768775 0.8825 0 0 0 0 0 0 0 0 0 0 0 0 0 0 0 0 0 0 0 0 0 0 0 0 0 0 0 0 0 0 0 0 0 0 0 0 0 0 0 0 0 0 0 0.0355825 0.050173 0.0334486 0.0167243 0 0 0 0 0 0 0 0 0 0 0 0 0 0 0 0 0 0.666973 1.33395 2.00092 0 0 0 0 0 0 0 0 0 0 0 0 0 0 0 0 0 0 0 0 0 0 0 0 0 0 0 0 0 0 0 0 0 0 0 0 0 0 0 0 0 0 0 0 0 0 0 0 0 0 0 0 0 0 0 0 0 0 0 0 0 0 0 0 0 0 0 0 0 1.38593 0.346482 0.692965 1.03945 0 0 0 0 0 0 0 0 0 0 0 0 0 0 0 0 0 0 0 0 0 0 0 0 0 0 0 0 0 0 0 0 0 0 0 0 0 0 0 0 0 0 0 0 0 0 0.374327 0 0.280745 0.187163 0.0935817 0.44028 0.265713 0.531426 0.79714 0 0 0 0 0 0 0 0 0 0 0 0 0 0.519723 0 0.389793 0.259862 0.129931 0 0 0 0 0 0.49 0.328702 0.657404 0.6325 0 0.3675 0.245 0.1225 0 0 0 0 0 0 0 0 0 0 0 0 0 0 0 0 0.288291 0.216218 0.144145 0.0720727 0.0720727 0.144145 0.216218 0 0 0 0 0 0 0 0 0 0 0 0 0 0.0946362 0.023659 0.0473181 0.0709771 0.0561138 0.0140285 0.0280569 0.0420854 0 0.181623 0.0454058 0.0908116 0.136217 0 0 0 0 0 0 0 0 0 0 0 0 0 0 0 0 0 0 0 0 0 0.276589 0.207441 0.138294 0.0691472 0 0 0 0 0 0 0 0 0 0 0 0 0 0 0 0 0 0 0 0 0 0 0 2.18282 0 1.63712 1.09141 0.545705 0 0 0 0 0 0 0 0 0 0 0 0 0.0874527 0.0655895 0.0437264 0.0218632 0.0977751 0.19555 0.293325 0 0 0 0 0 0 0 0 0 0 0 0 0 0 0 0 0 0 0 0 0 0 0 0 0 0 0 0 0 0 0 0 0 0 0 0 0 0 0 0 0 0 0 0 0 0 0 0 0 0 0 0 0 0.632456 1.26491 0.632456 0 0 0 0 0 0 0 0 0 0 0 0 0 0 0 0 0.06125 0.1225 0.154517 0 0 0 0 0 0 0 0 0 0 0 0 0 0 0 0 0 0 0 0 0 0 0 0 0 0 0 0 0 0 0 0 0 0 0 0 0 0 0 0 0 0 0 0 0 0 0 0 0 0 0 1.06958 0.3675 0.735 1.1025 0 0.60786 0.151965 0.30393 0.455895 0 0 0 0 0 0 0 0 0 0 0 0 0 0 0 0 0 0 0 0 0 0 0 0.519723 0.129931 0.259862 0.389793 0 0 0 0 0 0 0 0 0 0 0 0 0 0 0 0.391155 0.293367 0.195578 0.0977888 0 0 0 0 0 0 0 0 0 0.599072 0.149768 0.299536 0.449304 0 0 0 0 0 0 0 0 0 0 0 0 0 0 0 0 0 0 0 0 0 0 0 0 0 0 0 0 0 1.00623 1.06066 0.53033 0 0 0 0 0 0 0 0 0 0 1.08721 0.815409 0.543606 0.271803 0 0.271803 0.543606 0.815409 0 0.277205 0.0693013 0.138603 0.207904 0 0 0 0 0 0 0 0 0 0 0 0 0 0 0 0 0 0 0 0 0 0 0 0 0 0 0 0 0 0 0 0 0 0 0 0 0 0 0 0 0 0 0 0 0 0 0 0 0 0.523009 0 0.392257 0.261505 0.130752 0.387379 0.498892 0.535423 0.529216 0 0 0 0 0 0 0 0 0 0 0 0 0 0 0 0 0 0 0 0 0 0 0.519723 0 0.389793 0.259862 0.129931 0 0 0 0 0 0 0 0 0 0 0 0 0 0 0 0 0 0 0 0 0 0 0 0 0.398492 0.105048 0.210096 0.315144 0 0 0 0 0 0 0 0 1.18842 0.297106 0.594212 0.891318 0 0 0 0 0 0 0 0 0 0 0 0 0 0 0 0 0 0 0 0 0 0 0 0 0 0 0 0 0 0 0 0 0 0 0 0 0 0 0 0 0 0 0 0 0.293449 0.142414 0.284828 0.333312 0.766971 0.575228 0.383486 0.191743 0 0.438269 0.734548 0.0162115 0 0 0 0 0 0 0 0 0 0 0 0 0 0 0 0 0 0 0.5 1 0.632456 0 0 0 0 0.387379 0.0968448 0.19369 0.290534 0 0 0 0 0 0 0 0 0 0 0 0 0 0 0 0 0 0 0 0 0 0 0 0 0 0 0 0 0 0 0 0 0 0 0 0 0 0 0 0 0 0 0 0 0 0 0 0 0 0 0 2 0 1.5 1 0.5 0 0 0 0 0 0 0 0 0 0 0 0 0 0 0 0 0 0 0 0.649934 1.29987 0.7 0 0 0 0 0 0 0 0 0 0 0 2.8 0.894427 1.78885 2.68328 0 0 0 0 0 0 0 0 0 0 0 0 0 0 0 0 0 0 0 0 0 0 0 0 0 0.672678 0 0.575228 0.383486 0.191743 0 0.504509 0.336339 0.16817 0 0 0 0 0 0 0 0 0 0 0 0 0 0 0 0 0 0 0 0 0 0.3675 0.245 0.1225 0.0346482 0.0692965 0.103945 0 0 0 0 0 0 0 0 0 0 0 0 0 0 0 0 0 0 0 0 0 0 0 0.279397 0 0.209548 0.139698 0.0698492 0 0.0698492 0.139698 0.209548 0 0 0 0 0 0 0 0 0 0 0 0 0 0 0 0 0.3675 0.245 0.1225 0 0 0 0 0.49 0.1225 0.245 0.3675 0 0 0 0 0 0 0 0 0 0 0 0 0 0 0 0 0.75 1.24808 0.624038 0 0 0 0 0 0 0 0 0 0 0 0 0 0 0 0 0 0 0 0 0 0 0 0 0.598744 0.399163 0.199581 0.35336 0.544079 0.127123 0 0 0 0 0 0 0 0 0 0 0 0 0 0 0 0 0 0 0 0 0 0 0 0 0 0 0 0 0 0 0 0 0 0 0 0 0 0 0 0 0 0 0 0 0 0 0 0 0 0 0 0 0 0 0 0 0 0 0 0 0 0 0 0 0 0 0 0 0 0 0.387379 0.136959 0.273918 0.410877 0 0 0 0 0 0 0 0 0 0 0 0 0 0 0 0 0 0 0 0 0 0 0 0 0 0 0 0 0 0 0 0 0 0 0 0 0 0 0 0 0 0 0 0 0 0 0 0 0 0 0 0 0 0 0 0 0 0 0 0 0 0 0 0 0 0 0 0 0 0 0 0 0 0 0 0 0 0 0 0 0 0 0 0 0 0 0 0 0 0 0 0 0 0 0 1.18842 0 0.891318 0.594212 0.297106 0 0 0 0 0 0 0 0 0 0 0 0 0 0 0 0 0 0 0 0 0 0 0 0 0 0 0 0 0 0 0 0 0 0 0 0 0 0 0 0.0301302 0.00753255 0.0150651 0.0225976 0 0 0 0 0 0 0 0 0 0 0 0 0 0 0 0 0 0 0 0 0 0 0 0 0 0 0 0 0 0 0 0 0 0 0 0 0 0 0 0 0 0 0 0 0 0 0 0 0 0 0 0 0 0 0 0 0 0 0 0 0 0 0 0 0 0 0 0 0 0 0 0 0 0 1.25 2.32119 1.1606 0 0 0 0 0 0 0 0 0 0 0 0 0 0 0 0 0 1 1.89737 0.948683 0 0 0 0 0 0 0 0 0.620261 0 0.465196 0.310131 0.155065 0 0 0 0 0 0 0 0 0 0.411849 0.102962 0.205925 0.308887 0 0 0 0 0 0 0 0 0 0 0 0 0 0.49 0.1225 0.245 0.3675 0 0 0 0.00537412 0.00643904 0.00429269 0.00214635 0 0.00134353 0.00268706 0.00403059 0 0 0 0 0 0 0 0 0 0 0 0 0 0 0 0 0 0 0 0.364569 0.0153641 0.395297 0.0255286 0 0.0911422 0.182284 0.273427 0 0 0 0 0 0 0 0 0 0 0 0 0 0 0 0 0 0 0.289298 0.216974 0.144649 0.0723246 0 0 0 0 0 0 0 0 0 0 0 0 0 0 0 0 0 0 0 0 0 0 0 0 0 0 0 0 0 0 0 0 0.545705 1.09141 1.63712 0 0 0 0 0 0 0 0 0 0 0 0 0 0 0 0 0 0 0 0 0 0.176927 0.0442316 0.0884633 0.132695 0.735 0.611557 0.407705 0.203852 0 0 1.03078 1.56525 0.782624 0 0 0 0 0 0 0 0 0 0 0 0 0 0 0 0 0 0 0 0 0 0 0 0 0 0 0 0.415949 0.103987 0.207974 0.311961 0 0 0 0 0 0 0 0 0 0 0 0 0 0 0 0 0 0 0 0 0 0 0 0 0 0 0 0.606339 1.21268 0.883883 0 0 0 0 0 0 0 0 0 0 0 0 0 0 0 0 0 0 1.47 0.383486 0.766971 1.15046 0 0 0 0 0 1.96 1.53 1.02 0.51 0 0 0 0 0 0 0 0 0 0 0 0 0.611557 0.152889 0.305778 0.458668 0.55125 0.3675 0.18375 0 0 0.53033 1.06066 0.624038 0 0 0 0 0 0 0 0 0 0 0 0 0 0 0 0 0 0 0 0 0 0 0 0 0 0 0 0 0 0 0 0 0 0 0 0 0 0 0 0 0 0.653634 0.186865 0.373729 0.560594 0 0 0 0 0 0 0 0 0 0.49 0.3825 0.49 0.245 0 0 0 0 0 0.894427 1.1094 0.5547 0 0 0 0 0 0 0 0 0 0 0 0 0 0 0 0 0 0 0 0 0 0 0 0 0 0 0 0 0 0 0 0 0 0 0 0 0 0 0 0 0 0 0 0 0 0 0 0 0 0 0 0 0 0 0 0.424437 0.848875 0.559017 2.42536 2.82843 3.09233 3.18198 3.0052 0 0 0 0 0 0 0 0 0 0 0 0 0 0 0 0 0 0 0 0 0 0 0 0 0 0 0 0 0 0 0 0 0 0 0 0 0 0 0 0 0 0 0 0 0 0 0 0 0 0 0 0 0 0 0 0 0 0 0 0 0 0 0 0 0 0 0.49 0.493053 0.328702 0.164351 0.1225 0.245 0.3675 0 0 0 0 0 0 0 0 0 0 0 0 0 0 0 0 0 0 0 0 0 0 0 0 0 0 0 0 0 0 0 0 0 0.305778 0.229334 0.152889 0.0764446 0 0 0 0 0 0 0 0 0 0 0 0 0 0 0 0 0 0 0 0 0 0 0 0 0 0 0 0 0 0 0 0 0 0 0 0 0 0 0 0 0.361333 0 0.271 0.180666 0.0903332 0.145658 0.291316 0.436974 0 0 0 1.08721 1.06958 0.713055 0.356527 0 0 0 0 0.496292 0.124073 0.248146 0.372219 0 0.474488 0.316326 0.158163 0 0 0 0 0 0 0 0 0 0 0 0 0 0 0 0 0 0 0 0 0 0 0 0 0 0 0.619806 0.464855 0.309903 0.154952 0.154952 0.309903 0.464855 0.00889561 0.0177912 0.0266868 0 0 0 0 0 0 0 0 0 0 0 0 0 0 0 0 0 0 0 0 0 0 0 0 0 0 0 0 0 0 0 0 0 0 0 0 0 0 0 0 0 0 0 0 0 0 0 0 0 0 0 0 0 0 0 0 0 0 0 0 0 0 0 0 0 0 0 0 0 0 0 0 0 0 0 0 0 0 0.129931 0.259862 0.389793 0 0 0 0 0 0 0 0 0 0 0 0 0 0 0 0 0 0 0 0 0 0 0 1.1336 0.850203 0.566802 0.283401 0 0 0 0 0 0 0 0 0 0 0 0 0 0 0 0 0 0 0 0 0 0 0 0 0 0 0 0 0 0 0 0 0 0 0 0 0 0 0 0 0 0 0 0 0 0 0 0 0 0 0 0 0 0 0 0 0 0 0 0 0.579519 0.386346 0.193173 0 0.75 1.06066 0.53033 0 0 0 0 0 0 0 0 0 0 0 0.75 1.24808 0.624038 0 0 0 0 0 1.09567 0.273918 0.547837 0.821755 0 0 0 0 0 0 0 0 0 0 0 0 0 0 0 0.341921 0.606344 0.303172 0 0.332623 0.665246 0.997869 0 0 0 0 0 0 0 0 0 0 0 0 0 0 0 0 0 0 0 0 0 0.387379 0.0968448 0.19369 0.290534 0 0 0 0 0 0 0 0.5 1 1.5 0 0 0 0 0 0 0 0 0 0 0 0.637377 1.27475 0.901388 0 0 0 0 0.519723 0 0.389793 0.259862 0.129931 0 0 0 0 0 0 0 0 0 0 0 0 0 0 0 0 0 0 0 0 0 0 0 0 0 0 0 0 0 0 0 0 0 0 0 0 0 0 0 0 0 0 0 0 0 0.49 0.1225 0.245 0.3675 0.653634 0.560594 0.373729 0.186865 0 0 0 0 0 0.120615 0.241231 0.361846 0 0 0 0 0 0 0 0 0.135902 0.271803 0.407705 0 0 0 0.75 1.24808 0.624038 0 0 0 0.415949 0.191743 0.383486 0.575228 0 0 0 0.0536822 0.308584 0.670851 0 0 0 0.255808 0.0284479 0.198913 0.426273 0.0639521 0.127904 0.191856 0 0 0 0 0 0 0 0 0 0 0 0 0 0 0 0 0 0 0 0 0 0 0 0 0 0 0 0 0 0 0 0 0 0 0 0 0 0 0 0 0 0 0 0 0 0 0 0 0 0 0 0 0 0 0 0 0 0 0 0 0.711512 1.42302 2.13454 0 0 0 0 0 0 0 0 0 0 0 0 0 0 0 0 0 0 0 0 0 0 0 0 0 0 0 0 0 0 0 0 0 0 0 0 0 0 0 0 0 0 0 0 0 0 0 0.67082 1.34164 0.727607 0 0 0 0 0 0 0 0 0 0 0 0 0 0 0 0 0 0 0 0 0 0 0 0 0 0 0 0.0691472 0.138294 0.207441 0 0 0 0.155065 0.310131 0.465196 0 0 0 0 0 0 0 0 0 0 0 0 0 0 0 0 0 0 0 0 0 0 0 0 0 0 0 0 0 0 0 0 0 0 0 0 0 0 0 0 0 0 0 0 0 0 0 0 0 0 0 0 0 0 0 0 0 0 0 0 0 0 0 0.298894 0.101132 0.202264 0.303396 0.224171 0.149447 0.0747236 0 0 0 0 0 0 0 0 0 0 0 0 0 0 0 0 0 0 0 0 0 0 0 0.387379 0.0968448 0.19369 0.290534 0 0.410877 0.273918 0.136959 0 0 0 0 0 0 0 0 0 0 0 0 0 0 0 0 0 0 0 0 0 0 0 0 0 0 0 0 0 0 0 0 0 0 0 0 0 0 0 0 0 0 0 0 0 0 0 0 0 0 0 0 0 0 0 0 0 0 0 0 0 0 0 0 0 0 0 0 0 0 0 0 0 0 0 0 0 0 0 0 0 0 0 0 0 0 0 0 0 0 0 0 0 0 0 0 0 0 0 0 0 0 0 0 0 0 0 0 0 0 0 0 0 0 0 0 0 0 0 0 0 0 0 0 0 0 0 0 0 0 0 0 0 0 0 0 0 0 0 0 0 0 0 0 0 0 0 0 0 0 0 0 0 0 0 0 0 2.21359 0.553399 1.1068 1.6602 0 0 0 0 0 0 0 0 0 0 0 0 0 0 0 0 0 0 0 2.49615 1.6641 0.83205 0 0 0 0 0 0 0 0 0 0 0.53033 1.06066 0.75 0.269481 0 0.214371 0.142914 0.071457 0.202111 0.134741 0.0673703 0.177509 0.355018 0.0052773 0 0 0 0 0 0.623784 0 0.467838 0.311892 0.155946 0 0 0 0 0 0 0 0 0 0 0 0 0 0 0 0 0 0 0 0 0 0 0 0 0 0 0 0 0.356527 0.267396 0.178264 0.0891318 0 0.0891318 0.178264 0.267396 0 0 0 0 0 0 0 0 0.0246623 0.00616557 0.0123311 0.0184967 0 0 0 0 0 0 0 0.389793 0.259862 0.129931 0 0 0 0 0 0 0 0 0 0.5547 1.1094 0.894427 0 0 0 0 0 0 0 0 0 0 0 0 0 0 0 0 0 0 0 0 0 0 0 0 0 0 0 0 0.866206 0.22283 0.445659 0.668489 0 0 0 0 0 0 0 0 0 0 0 0 0 0 0 0 0 0 0.216551 0.433103 0.649654 0 0 0 0 0 0 0 0 0 0 0 0 0 0 0.387379 0.290534 0.19369 0.0968448 0.30625 0.6125 0.420978 0 0 0 0 0 0 0 0 0 0 0 0 0 0 0 0 0.55 1.07864 0.539319 0 0 0 0 0 0 0 0 0 0 0 0 0 0 0 2 0.5 1 1.5 0 0 0 0 0 0 0 0 0 0 0 0 0 0 0 0 0 0 0 0 0 0 2.23607 0.559017 1.11803 1.67705 0 0 0 0 0 0 0 0 0 0 0 0 0 0 0.735 0.18375 0.3675 0.55125 0 0 0 0 0 0 0 0 0 0 0 0 0 0 0 0 0 0 0 0 0 0 0 0 0 0 0 0.387379 0 0.290534 0.19369 0.0968448 0 0 0 0 0 0 0 0 0 0 0 0 0 0 0 0 0 0 0 0 0 0 0 0 0 0 0 0 0 0 0 0 0 0 0 0 0 1.08466 0.325062 0.650125 0.975187 0 0 0 0 0 0 0 0 0 0 0 0 0 0 0 0 0 0 0 0 0 0 0 0 0 0 0 0 0 0 0 0 0 0 0 0 0.400418 0.100104 0.200209 0.300313 0 0.199687 0.351677 0.175839 0 0 0 0 0 0 0 0 0 0 0.0225976 0.0150651 0.00753255 0 0 0 0 0.276589 0 0.207441 0.138294 0.0691472 0 0.559017 0.790569 0.395285 0 0 0 0 0 0 0 0 0 0 0 0 0 0 0 0 0 0 0 0 0 0 0 0 0 0 0 0 0 0 0 0 0 0 0 0 0 0 0 0 0 0 0 0.487314 0.240853 0.437851 0.218926 0 0.653634 0.186865 0.373729 0.560594 0 0 0 0 0 0.163408 0.326817 0.490225 0 0 0 0 0 3.31891 0 2.60046 1.73364 0.866821 0.490225 0.326817 0.163408 0 0 0 0 0 0 0 0 0 0 0 0 0 0 0 0 0 0 0 0 0 0 0 0 0 0 0 0 0 0 0 0 0 0 0 0 0 0 0 0 0 0 0 0 0 0 0 0 0 0 0.129931 0.259862 0.389793 0.739579 0.493053 0.246526 0 0 0 0 0 0 0 0 0 0 0 0 0 0 0 0 0 0 0 0 0 0 0 0 0 0 0 0 0 0 0 0.49 0.173241 0.346482 0.519723 0 0 0 1.1025 0.735 0.3675 0 0 0 0 0 0 0 0 0 0 0 0 0 0 0 0 0 0 0 0 0 0 0 0 1.03945 0.779585 0.519723 0.259862 0 0 0 0 0 0 0 0 0 0 0 0.582807 0.718852 0.0782787 0 0 0 0 0 0 0 0 0 0 0 0 2.1 1.4 0.7 0.821755 0.547837 0.273918 0 0 0 0 0 0 0 0 0 0 0 0 0 0 0 0 0 0 0 0 0 0 0 0 0 0 0 0 0 0 0 0 0 0 0 0 0 0 0 0 0 0 0 0 0 0 0 0 0 0 0 0 0 0 0 0 0 0 0 0 0.356527 0.713055 0.763381 0 0 0 0 0.267396 0.178264 0.0891318 0 0 0 0 0 0 1.0875 0.513541 1.02708 0.705066 0 0 0 0 0 0 0 0 0 0 0 0 0 0 0 0 0 0 0 0 0 0 0 0 0 0 0 0 0 0 0.49 0.129931 0.259862 0.389793 0 0 0 0 0 0 0 0 0 0 0 0 0 0 0 0 0 0 0 0 0 0.75 1.5 1.11803 0 0 0 0 0.632456 1.26491 0.707107 0.279397 0.43673 0.544965 0.272483 0 0 0 0 0 0.75 1.5 0.83205 1.75909 0 1.40397 0.935977 0.467989 0 0 0 0 0 0 0 0 0 0 0 0 0 0 0 0 0 0 0 0 0 0 0 0.0283643 0.0567286 0.0850929 0 0 0 0 0 0 1.04006 1.5 0.75 0 0 0 0 0 0.632456 1.26491 0.707107 0 0 0 0 0 0 0 0 0 0 0 0 0 0 0 0 0 0 0 0 0 0 0.624038 1.24808 0.75 0 0 0 0 0 0 0 0 0 0 0 0 0 0 0 0 0.735 0.18375 0.3675 0.55125 0.55125 0.3675 0.18375 0 0 0 0 0 0 0 0 0 0 0 0 0 0 0 0 0 0 0 0 0 0 0 0 0 0 0 0 0 0 0.547837 0.422058 0.844116 0.969894 0 0 0 0 0 0 0 0 0 0 0 0 0 0 0 0 0 0 0 0 0 0 0 0 0 0 0 0 0 0 0 0 0 0 0 0 0 0 0 0.285515 0.57103 0.856545 0.815624 0.54375 0.271875 0.33075 0.6615 0.99225 0 0 0 0 0 0 0 0 0 0 0 0 0 0 0 0 0 0 0 0 0 0.401093 0.267396 0.133698 0 0 0 0 0 0 0 0 0 0 0 0 0 0 0 0 0 0 0 0 0 0.387379 0.290534 0.19369 0.0968448 0 0 0 0 0 0 0 0 0 0 0 0 0 0 0 0 0 0 0 0 0 0 0 0 0 0 0 0 0 0 0 0 0 0 0 0 0 0 0 0 0 0 0 0 0 0 0 0 0.470838 0.117709 0.235419 0.353128 0.288436 0.216327 0.144218 0.072109 0 0 0 0 0 0 0 0 0 0 0 0 0 0 0 0 0 0 0 0 0 0 0 0 0 0 0 0 0 0 0 0 0 0 0 0 0 0 0 0 0 0 0 0 0 0 0 0 0 0 0 0 0 0 0 0 0 0 0 0 0 0 0 0 0 0 0.569805 0.207657 0.415313 0.62297 0.427354 0.284902 0.142451 0 0 0 0 0 0 0 0 0 0.346482 0.692965 1.03945 0.962487 0.247624 0.495248 0.742872 0 0.707107 1.26491 0.632456 0 0 0 0 0 0 0 0 0 0 0 0 0 0 0 0 0 0 0 0.519723 0 0.389793 0.259862 0.129931 0 0.164351 0.328